 # Fe12 O16
 
          28  atoms
           2  atom types
 
      0.00000000       5.98854422  xlo xhi
      0.00000000       6.11678759  ylo yhi
      0.00000000       8.53488845  zlo zhi
 
Masses
 
           1   55.84500000    # Fe
           2   15.99900000    # O 
 
Atoms # atomic
 
         1    1    0.0 0.00000000       1.50450343       7.45593346
         2    1    0.0 1.49713606       1.55671632       2.13372211
         3    1    0.0 0.00000000       0.00000000       4.26744423
         4    1    0.0 5.98854422       3.05839380       4.26744423
         5    2    0.0 1.42841751       1.46219972       4.21935866
         6    2    0.0 5.98854422       0.05768131       2.23113079
         7    2    0.0 0.00000000       3.00243742       2.09087697
         8    1    0.0 2.99427211       4.61228416       3.18848923
         9    1    0.0 1.49713606       4.56007127       6.40116634
        10    1    0.0 2.99427211       0.00000000       0.00000000
        11    1    0.0 2.99427211       3.05839379       0.00000000
        12    2    0.0 1.56585460       4.65458787       8.48680289
        13    2    0.0 2.99427211       6.05910628       6.49857502
        14    2    0.0 2.99427211       3.11435017       6.35832120
        15    1    0.0 2.99427211       1.50450343       5.34639922
        16    2    0.0 1.56585460       1.46219972       0.04808556
        17    2    0.0 2.99427211       0.05768131       2.03631343
        18    2    0.0 2.99427211       3.00243742       2.17656725
        19    1    0.0 0.00000000       4.61228416       1.07895499
        20    2    0.0 1.42841751       4.65458787       4.31552979
        21    2    0.0 0.00000000       6.05910628       6.30375766
        22    2    0.0 0.00000000       3.11435017       6.44401148
        23    1    0.0 4.49140816       4.56007127       6.40116634
        24    2    0.0 4.56012671       4.65458787       4.31552979
        25    1    0.0 4.49140816       1.55671632       2.13372211
        26    2    0.0 4.42268962       1.46219972       0.04808556
        27    2    0.0 4.42268962       4.65458787       8.48680289
        28    2    0.0 4.56012671       1.46219972       4.21935866
