# LAMMPS data file written by Ovito 3.0.0-dev539
1512 atoms
2 atom types
-8.53335123 17.06670246 xlo xhi
-8.53335123 17.06670246 ylo yhi
-8.53335123 17.06670246 zlo zhi

Masses

1 55.845  # Fe
2 15.999  # O

Atoms  # charge

1 1 0.0 -7.4666823263 -7.4666823263 -7.4666823263
2 1 0.0 -7.4666823263 -5.3333445188 -5.3333445188
3 1 0.0 -1.0666689038 -5.3333445188 -3.2000067113
4 1 0.0 -1.0666689038 -7.4666823263 -1.0666689038
5 1 0.0 -7.4666823263 -1.0666689038 -1.0666689038
6 1 0.0 -7.4666823263 -3.2000067113 -3.2000067113
7 1 0.0 -1.0666689038 -3.2000067113 -5.3333445188
8 1 0.0 -1.0666689038 -1.0666689038 -7.4666823263
9 1 0.0 -5.3333445188 -7.4666823263 -5.3333445188
10 1 0.0 -3.2000067113 -1.0666689038 -5.3333445188
11 1 0.0 -3.2000067113 -7.4666823263 -3.2000067113
12 1 0.0 -5.3333445188 -1.0666689038 -3.2000067113
13 1 0.0 -5.3333445188 -3.2000067113 -1.0666689038
14 1 0.0 -5.3333445188 -5.3333445188 -7.4666823263
15 1 0.0 -3.2000067113 -5.3333445188 -1.0666689038
16 1 0.0 -3.2000067113 -3.2000067113 -7.4666823263
17 1 0.0 -8.53335123 -8.53335123 -4.266675615
18 1 0.0 -6.4000134225 -6.4000134225 -2.1333378075
19 1 0.0 -8.53335123 -4.266675615 -8.53335123
20 1 0.0 -2.1333378075 -6.4000134225 -6.4000134225
21 1 0.0 -6.4000134225 -2.1333378075 -6.4000134225
22 1 0.0 -2.1333378075 -2.1333378075 -2.1333378075
23 1 0.0 -4.266675615 -8.53335123 -8.53335123
24 1 0.0 -4.266675615 -4.266675615 -4.266675615
25 2 0.0 -7.5037938707 -7.5037938707 -1.0295573593
26 2 0.0 -7.4295707818 -5.3704560632 -7.4295707818
27 2 0.0 -1.0295573593 -5.2962329743 -5.2962329743
28 2 0.0 -1.1037804482 -7.4295707818 -3.1628951668
29 2 0.0 -7.5037938707 -1.0295573593 -7.5037938707
30 2 0.0 -7.4295707818 -3.1628951668 -1.1037804482
31 2 0.0 -1.0295573593 -3.2371182557 -3.2371182557
32 2 0.0 -1.1037804482 -1.1037804482 -5.3704560632
33 2 0.0 -1.0295573593 -7.5037938707 -7.5037938707
34 2 0.0 -7.4295707818 -7.4295707818 -5.3704560632
35 2 0.0 -5.2962329743 -1.0295573593 -5.2962329743
36 2 0.0 -3.1628951668 -1.1037804482 -7.4295707818
37 2 0.0 -3.2371182557 -1.0295573593 -3.2371182557
38 2 0.0 -5.3704560632 -1.1037804482 -1.1037804482
39 2 0.0 -7.5037938707 -5.2962329743 -3.2371182557
40 2 0.0 -5.3704560632 -3.1628951668 -3.1628951668
41 2 0.0 -5.2962329743 -3.2371182557 -7.5037938707
42 2 0.0 -5.2962329743 -7.5037938707 -3.2371182557
43 2 0.0 -7.5037938707 -3.2371182557 -5.2962329743
44 2 0.0 -5.2962329743 -5.2962329743 -1.0295573593
45 2 0.0 -5.3704560632 -7.4295707818 -7.4295707818
46 2 0.0 -1.1037804482 -5.3704560632 -1.1037804482
47 2 0.0 -3.2371182557 -5.2962329743 -7.5037938707
48 2 0.0 -3.1628951668 -5.3704560632 -3.1628951668
49 2 0.0 -7.4295707818 -1.1037804482 -3.1628951668
50 2 0.0 -1.1037804482 -3.1628951668 -7.4295707818
51 2 0.0 -1.0295573593 -1.0295573593 -1.0295573593
52 2 0.0 -5.3704560632 -5.3704560632 -5.3704560632
53 2 0.0 -3.2371182557 -7.5037938707 -5.2962329743
54 2 0.0 -3.1628951668 -3.1628951668 -5.3704560632
55 2 0.0 -3.1628951668 -7.4295707818 -1.1037804482
56 2 0.0 -3.2371182557 -3.2371182557 -1.0295573593
57 1 0.0 -7.4666823263 -7.4666823263 1.0666689037
58 1 0.0 -7.4666823263 -5.3333445188 3.2000067112
59 1 0.0 -1.0666689038 -5.3333445188 5.3333445187
60 1 0.0 -1.0666689038 -7.4666823263 7.4666823262
61 1 0.0 -7.4666823263 -1.0666689038 7.4666823262
62 1 0.0 -7.4666823263 -3.2000067113 5.3333445187
63 1 0.0 -1.0666689038 -3.2000067113 3.2000067112
64 1 0.0 -1.0666689038 -1.0666689038 1.0666689037
65 1 0.0 -5.3333445188 -7.4666823263 3.2000067112
66 1 0.0 -3.2000067113 -1.0666689038 3.2000067112
67 1 0.0 -3.2000067113 -7.4666823263 5.3333445187
68 1 0.0 -5.3333445188 -1.0666689038 5.3333445187
69 1 0.0 -5.3333445188 -3.2000067113 7.4666823262
70 1 0.0 -5.3333445188 -5.3333445188 1.0666689037
71 1 0.0 -3.2000067113 -5.3333445188 7.4666823262
72 1 0.0 -3.2000067113 -3.2000067113 1.0666689037
73 1 0.0 -8.53335123 -8.53335123 4.266675615
74 1 0.0 -6.4000134225 -6.4000134225 6.4000134225
75 1 0.0 -8.53335123 -4.266675615 0.0
76 1 0.0 -2.1333378075 -6.4000134225 2.1333378075
77 1 0.0 -6.4000134225 -2.1333378075 2.1333378075
78 1 0.0 -2.1333378075 -2.1333378075 6.4000134225
79 1 0.0 -4.266675615 -8.53335123 0.0
80 1 0.0 -4.266675615 -4.266675615 4.266675615
81 2 0.0 -7.5037938707 -7.5037938707 7.5037938707
82 2 0.0 -7.4295707818 -5.3704560632 1.1037804482
83 2 0.0 -1.0295573593 -5.2962329743 3.2371182557
84 2 0.0 -1.1037804482 -7.4295707818 5.3704560632
85 2 0.0 -7.5037938707 -1.0295573593 1.0295573593
86 2 0.0 -7.4295707818 -3.1628951668 7.4295707818
87 2 0.0 -1.0295573593 -3.2371182557 5.2962329743
88 2 0.0 -1.1037804482 -1.1037804482 3.1628951668
89 2 0.0 -1.0295573593 -7.5037938707 1.0295573593
90 2 0.0 -7.4295707818 -7.4295707818 3.1628951668
91 2 0.0 -5.2962329743 -1.0295573593 3.2371182557
92 2 0.0 -3.1628951668 -1.1037804482 1.1037804482
93 2 0.0 -3.2371182557 -1.0295573593 5.2962329743
94 2 0.0 -5.3704560632 -1.1037804482 7.4295707818
95 2 0.0 -7.5037938707 -5.2962329743 5.2962329743
96 2 0.0 -5.3704560632 -3.1628951668 5.3704560632
97 2 0.0 -5.2962329743 -3.2371182557 1.0295573593
98 2 0.0 -5.2962329743 -7.5037938707 5.2962329743
99 2 0.0 -7.5037938707 -3.2371182557 3.2371182557
100 2 0.0 -5.2962329743 -5.2962329743 7.5037938707
101 2 0.0 -5.3704560632 -7.4295707818 1.1037804482
102 2 0.0 -1.1037804482 -5.3704560632 7.4295707818
103 2 0.0 -3.2371182557 -5.2962329743 1.0295573593
104 2 0.0 -3.1628951668 -5.3704560632 5.3704560632
105 2 0.0 -7.4295707818 -1.1037804482 5.3704560632
106 2 0.0 -1.1037804482 -3.1628951668 1.1037804482
107 2 0.0 -1.0295573593 -1.0295573593 7.5037938707
108 2 0.0 -5.3704560632 -5.3704560632 3.1628951668
109 2 0.0 -3.2371182557 -7.5037938707 3.2371182557
110 2 0.0 -3.1628951668 -3.1628951668 3.1628951668
111 2 0.0 -3.1628951668 -7.4295707818 7.4295707818
112 2 0.0 -3.2371182557 -3.2371182557 7.5037938707
113 1 0.0 -7.4666823263 -7.4666823263 9.6000201337
114 1 0.0 -7.4666823263 -5.3333445188 11.7333579412
115 1 0.0 -1.0666689038 -5.3333445188 13.8666957487
116 1 0.0 -1.0666689038 -7.4666823263 16.0000335562
117 1 0.0 -7.4666823263 -1.0666689038 16.0000335562
118 1 0.0 -7.4666823263 -3.2000067113 13.8666957487
119 1 0.0 -1.0666689038 -3.2000067113 11.7333579412
120 1 0.0 -1.0666689038 -1.0666689038 9.6000201337
121 1 0.0 -5.3333445188 -7.4666823263 11.7333579412
122 1 0.0 -3.2000067113 -1.0666689038 11.7333579412
123 1 0.0 -3.2000067113 -7.4666823263 13.8666957487
124 1 0.0 -5.3333445188 -1.0666689038 13.8666957487
125 1 0.0 -5.3333445188 -3.2000067113 16.0000335562
126 1 0.0 -5.3333445188 -5.3333445188 9.6000201337
127 1 0.0 -3.2000067113 -5.3333445188 16.0000335562
128 1 0.0 -3.2000067113 -3.2000067113 9.6000201337
129 1 0.0 -8.53335123 -8.53335123 12.800026845
130 1 0.0 -6.4000134225 -6.4000134225 14.9333646525
131 1 0.0 -8.53335123 -4.266675615 8.53335123
132 1 0.0 -2.1333378075 -6.4000134225 10.6666890375
133 1 0.0 -6.4000134225 -2.1333378075 10.6666890375
134 1 0.0 -2.1333378075 -2.1333378075 14.9333646525
135 1 0.0 -4.266675615 -8.53335123 8.53335123
136 1 0.0 -4.266675615 -4.266675615 12.800026845
137 2 0.0 -7.5037938707 -7.5037938707 16.0371451007
138 2 0.0 -7.4295707818 -5.3704560632 9.6371316782
139 2 0.0 -1.0295573593 -5.2962329743 11.7704694857
140 2 0.0 -1.1037804482 -7.4295707818 13.9038072932
141 2 0.0 -7.5037938707 -1.0295573593 9.5629085893
142 2 0.0 -7.4295707818 -3.1628951668 15.9629220118
143 2 0.0 -1.0295573593 -3.2371182557 13.8295842043
144 2 0.0 -1.1037804482 -1.1037804482 11.6962463968
145 2 0.0 -1.0295573593 -7.5037938707 9.5629085893
146 2 0.0 -7.4295707818 -7.4295707818 11.6962463968
147 2 0.0 -5.2962329743 -1.0295573593 11.7704694857
148 2 0.0 -3.1628951668 -1.1037804482 9.6371316782
149 2 0.0 -3.2371182557 -1.0295573593 13.8295842043
150 2 0.0 -5.3704560632 -1.1037804482 15.9629220118
151 2 0.0 -7.5037938707 -5.2962329743 13.8295842043
152 2 0.0 -5.3704560632 -3.1628951668 13.9038072932
153 2 0.0 -5.2962329743 -3.2371182557 9.5629085893
154 2 0.0 -5.2962329743 -7.5037938707 13.8295842043
155 2 0.0 -7.5037938707 -3.2371182557 11.7704694857
156 2 0.0 -5.2962329743 -5.2962329743 16.0371451007
157 2 0.0 -5.3704560632 -7.4295707818 9.6371316782
158 2 0.0 -1.1037804482 -5.3704560632 15.9629220118
159 2 0.0 -3.2371182557 -5.2962329743 9.5629085893
160 2 0.0 -3.1628951668 -5.3704560632 13.9038072932
161 2 0.0 -7.4295707818 -1.1037804482 13.9038072932
162 2 0.0 -1.1037804482 -3.1628951668 9.6371316782
163 2 0.0 -1.0295573593 -1.0295573593 16.0371451007
164 2 0.0 -5.3704560632 -5.3704560632 11.6962463968
165 2 0.0 -3.2371182557 -7.5037938707 11.7704694857
166 2 0.0 -3.1628951668 -3.1628951668 11.6962463968
167 2 0.0 -3.1628951668 -7.4295707818 15.9629220118
168 2 0.0 -3.2371182557 -3.2371182557 16.0371451007
169 1 0.0 -7.4666823263 1.0666689037 -7.4666823263
170 1 0.0 -7.4666823263 3.2000067112 -5.3333445188
171 1 0.0 -1.0666689038 3.2000067112 -3.2000067113
172 1 0.0 -1.0666689038 1.0666689037 -1.0666689038
173 1 0.0 -7.4666823263 7.4666823262 -1.0666689038
174 1 0.0 -7.4666823263 5.3333445187 -3.2000067113
175 1 0.0 -1.0666689038 5.3333445187 -5.3333445188
176 1 0.0 -1.0666689038 7.4666823262 -7.4666823263
177 1 0.0 -5.3333445188 1.0666689037 -5.3333445188
178 1 0.0 -3.2000067113 7.4666823262 -5.3333445188
179 1 0.0 -3.2000067113 1.0666689037 -3.2000067113
180 1 0.0 -5.3333445188 7.4666823262 -3.2000067113
181 1 0.0 -5.3333445188 5.3333445187 -1.0666689038
182 1 0.0 -5.3333445188 3.2000067112 -7.4666823263
183 1 0.0 -3.2000067113 3.2000067112 -1.0666689038
184 1 0.0 -3.2000067113 5.3333445187 -7.4666823263
185 1 0.0 -8.53335123 0.0 -4.266675615
186 1 0.0 -6.4000134225 2.1333378075 -2.1333378075
187 1 0.0 -8.53335123 4.266675615 -8.53335123
188 1 0.0 -2.1333378075 2.1333378075 -6.4000134225
189 1 0.0 -6.4000134225 6.4000134225 -6.4000134225
190 1 0.0 -2.1333378075 6.4000134225 -2.1333378075
191 1 0.0 -4.266675615 0.0 -8.53335123
192 1 0.0 -4.266675615 4.266675615 -4.266675615
193 2 0.0 -7.5037938707 1.0295573593 -1.0295573593
194 2 0.0 -7.4295707818 3.1628951668 -7.4295707818
195 2 0.0 -1.0295573593 3.2371182557 -5.2962329743
196 2 0.0 -1.1037804482 1.1037804482 -3.1628951668
197 2 0.0 -7.5037938707 7.5037938707 -7.5037938707
198 2 0.0 -7.4295707818 5.3704560632 -1.1037804482
199 2 0.0 -1.0295573593 5.2962329743 -3.2371182557
200 2 0.0 -1.1037804482 7.4295707818 -5.3704560632
201 2 0.0 -1.0295573593 1.0295573593 -7.5037938707
202 2 0.0 -7.4295707818 1.1037804482 -5.3704560632
203 2 0.0 -5.2962329743 7.5037938707 -5.2962329743
204 2 0.0 -3.1628951668 7.4295707818 -7.4295707818
205 2 0.0 -3.2371182557 7.5037938707 -3.2371182557
206 2 0.0 -5.3704560632 7.4295707818 -1.1037804482
207 2 0.0 -7.5037938707 3.2371182557 -3.2371182557
208 2 0.0 -5.3704560632 5.3704560632 -3.1628951668
209 2 0.0 -5.2962329743 5.2962329743 -7.5037938707
210 2 0.0 -5.2962329743 1.0295573593 -3.2371182557
211 2 0.0 -7.5037938707 5.2962329743 -5.2962329743
212 2 0.0 -5.2962329743 3.2371182557 -1.0295573593
213 2 0.0 -5.3704560632 1.1037804482 -7.4295707818
214 2 0.0 -1.1037804482 3.1628951668 -1.1037804482
215 2 0.0 -3.2371182557 3.2371182557 -7.5037938707
216 2 0.0 -3.1628951668 3.1628951668 -3.1628951668
217 2 0.0 -7.4295707818 7.4295707818 -3.1628951668
218 2 0.0 -1.1037804482 5.3704560632 -7.4295707818
219 2 0.0 -1.0295573593 7.5037938707 -1.0295573593
220 2 0.0 -5.3704560632 3.1628951668 -5.3704560632
221 2 0.0 -3.2371182557 1.0295573593 -5.2962329743
222 2 0.0 -3.1628951668 5.3704560632 -5.3704560632
223 2 0.0 -3.1628951668 1.1037804482 -1.1037804482
224 2 0.0 -3.2371182557 5.2962329743 -1.0295573593
225 1 0.0 -7.4666823263 1.0666689037 1.0666689037
226 1 0.0 -7.4666823263 3.2000067112 3.2000067112
227 1 0.0 -1.0666689038 3.2000067112 5.3333445187
228 1 0.0 -1.0666689038 1.0666689037 7.4666823262
229 1 0.0 -7.4666823263 7.4666823262 7.4666823262
230 1 0.0 -7.4666823263 5.3333445187 5.3333445187
231 1 0.0 -1.0666689038 5.3333445187 3.2000067112
232 1 0.0 -1.0666689038 7.4666823262 1.0666689037
233 1 0.0 -5.3333445188 1.0666689037 3.2000067112
234 1 0.0 -3.2000067113 7.4666823262 3.2000067112
235 1 0.0 -3.2000067113 1.0666689037 5.3333445187
236 1 0.0 -5.3333445188 7.4666823262 5.3333445187
237 1 0.0 -5.3333445188 5.3333445187 7.4666823262
238 1 0.0 -5.3333445188 3.2000067112 1.0666689037
239 1 0.0 -3.2000067113 3.2000067112 7.4666823262
240 1 0.0 -3.2000067113 5.3333445187 1.0666689037
241 1 0.0 -8.53335123 0.0 4.266675615
242 1 0.0 -6.4000134225 2.1333378075 6.4000134225
243 1 0.0 -8.53335123 4.266675615 0.0
244 1 0.0 -2.1333378075 2.1333378075 2.1333378075
245 1 0.0 -6.4000134225 6.4000134225 2.1333378075
246 1 0.0 -2.1333378075 6.4000134225 6.4000134225
247 1 0.0 -4.266675615 0.0 0.0
248 1 0.0 -4.266675615 4.266675615 4.266675615
249 2 0.0 -7.5037938707 1.0295573593 7.5037938707
250 2 0.0 -7.4295707818 3.1628951668 1.1037804482
251 2 0.0 -1.0295573593 3.2371182557 3.2371182557
252 2 0.0 -1.1037804482 1.1037804482 5.3704560632
253 2 0.0 -7.5037938707 7.5037938707 1.0295573593
254 2 0.0 -7.4295707818 5.3704560632 7.4295707818
255 2 0.0 -1.0295573593 5.2962329743 5.2962329743
256 2 0.0 -1.1037804482 7.4295707818 3.1628951668
257 2 0.0 -1.0295573593 1.0295573593 1.0295573593
258 2 0.0 -7.4295707818 1.1037804482 3.1628951668
259 2 0.0 -5.2962329743 7.5037938707 3.2371182557
260 2 0.0 -3.1628951668 7.4295707818 1.1037804482
261 2 0.0 -3.2371182557 7.5037938707 5.2962329743
262 2 0.0 -5.3704560632 7.4295707818 7.4295707818
263 2 0.0 -7.5037938707 3.2371182557 5.2962329743
264 2 0.0 -5.3704560632 5.3704560632 5.3704560632
265 2 0.0 -5.2962329743 5.2962329743 1.0295573593
266 2 0.0 -5.2962329743 1.0295573593 5.2962329743
267 2 0.0 -7.5037938707 5.2962329743 3.2371182557
268 2 0.0 -5.2962329743 3.2371182557 7.5037938707
269 2 0.0 -5.3704560632 1.1037804482 1.1037804482
270 2 0.0 -1.1037804482 3.1628951668 7.4295707818
271 2 0.0 -3.2371182557 3.2371182557 1.0295573593
272 2 0.0 -3.1628951668 3.1628951668 5.3704560632
273 2 0.0 -7.4295707818 7.4295707818 5.3704560632
274 2 0.0 -1.1037804482 5.3704560632 1.1037804482
275 2 0.0 -1.0295573593 7.5037938707 7.5037938707
276 2 0.0 -5.3704560632 3.1628951668 3.1628951668
277 2 0.0 -3.2371182557 1.0295573593 3.2371182557
278 2 0.0 -3.1628951668 5.3704560632 3.1628951668
279 2 0.0 -3.1628951668 1.1037804482 7.4295707818
280 2 0.0 -3.2371182557 5.2962329743 7.5037938707
281 1 0.0 -7.4666823263 1.0666689037 9.6000201337
282 1 0.0 -7.4666823263 3.2000067112 11.7333579412
283 1 0.0 -1.0666689038 3.2000067112 13.8666957487
284 1 0.0 -1.0666689038 1.0666689037 16.0000335562
285 1 0.0 -7.4666823263 7.4666823262 16.0000335562
286 1 0.0 -7.4666823263 5.3333445187 13.8666957487
287 1 0.0 -1.0666689038 5.3333445187 11.7333579412
288 1 0.0 -1.0666689038 7.4666823262 9.6000201337
289 1 0.0 -5.3333445188 1.0666689037 11.7333579412
290 1 0.0 -3.2000067113 7.4666823262 11.7333579412
291 1 0.0 -3.2000067113 1.0666689037 13.8666957487
292 1 0.0 -5.3333445188 7.4666823262 13.8666957487
293 1 0.0 -5.3333445188 5.3333445187 16.0000335562
294 1 0.0 -5.3333445188 3.2000067112 9.6000201337
295 1 0.0 -3.2000067113 3.2000067112 16.0000335562
296 1 0.0 -3.2000067113 5.3333445187 9.6000201337
297 1 0.0 -8.53335123 0.0 12.800026845
298 1 0.0 -6.4000134225 2.1333378075 14.9333646525
299 1 0.0 -8.53335123 4.266675615 8.53335123
300 1 0.0 -2.1333378075 2.1333378075 10.6666890375
301 1 0.0 -6.4000134225 6.4000134225 10.6666890375
302 1 0.0 -2.1333378075 6.4000134225 14.9333646525
303 1 0.0 -4.266675615 0.0 8.53335123
304 1 0.0 -4.266675615 4.266675615 12.800026845
305 2 0.0 -7.5037938707 1.0295573593 16.0371451007
306 2 0.0 -7.4295707818 3.1628951668 9.6371316782
307 2 0.0 -1.0295573593 3.2371182557 11.7704694857
308 2 0.0 -1.1037804482 1.1037804482 13.9038072932
309 2 0.0 -7.5037938707 7.5037938707 9.5629085893
310 2 0.0 -7.4295707818 5.3704560632 15.9629220118
311 2 0.0 -1.0295573593 5.2962329743 13.8295842043
312 2 0.0 -1.1037804482 7.4295707818 11.6962463968
313 2 0.0 -1.0295573593 1.0295573593 9.5629085893
314 2 0.0 -7.4295707818 1.1037804482 11.6962463968
315 2 0.0 -5.2962329743 7.5037938707 11.7704694857
316 2 0.0 -3.1628951668 7.4295707818 9.6371316782
317 2 0.0 -3.2371182557 7.5037938707 13.8295842043
318 2 0.0 -5.3704560632 7.4295707818 15.9629220118
319 2 0.0 -7.5037938707 3.2371182557 13.8295842043
320 2 0.0 -5.3704560632 5.3704560632 13.9038072932
321 2 0.0 -5.2962329743 5.2962329743 9.5629085893
322 2 0.0 -5.2962329743 1.0295573593 13.8295842043
323 2 0.0 -7.5037938707 5.2962329743 11.7704694857
324 2 0.0 -5.2962329743 3.2371182557 16.0371451007
325 2 0.0 -5.3704560632 1.1037804482 9.6371316782
326 2 0.0 -1.1037804482 3.1628951668 15.9629220118
327 2 0.0 -3.2371182557 3.2371182557 9.5629085893
328 2 0.0 -3.1628951668 3.1628951668 13.9038072932
329 2 0.0 -7.4295707818 7.4295707818 13.9038072932
330 2 0.0 -1.1037804482 5.3704560632 9.6371316782
331 2 0.0 -1.0295573593 7.5037938707 16.0371451007
332 2 0.0 -5.3704560632 3.1628951668 11.6962463968
333 2 0.0 -3.2371182557 1.0295573593 11.7704694857
334 2 0.0 -3.1628951668 5.3704560632 11.6962463968
335 2 0.0 -3.1628951668 1.1037804482 15.9629220118
336 2 0.0 -3.2371182557 5.2962329743 16.0371451007
337 1 0.0 -7.4666823263 9.6000201337 -7.4666823263
338 1 0.0 -7.4666823263 11.7333579412 -5.3333445188
339 1 0.0 -1.0666689038 11.7333579412 -3.2000067113
340 1 0.0 -1.0666689038 9.6000201337 -1.0666689038
341 1 0.0 -7.4666823263 16.0000335562 -1.0666689038
342 1 0.0 -7.4666823263 13.8666957487 -3.2000067113
343 1 0.0 -1.0666689038 13.8666957487 -5.3333445188
344 1 0.0 -1.0666689038 16.0000335562 -7.4666823263
345 1 0.0 -5.3333445188 9.6000201337 -5.3333445188
346 1 0.0 -3.2000067113 16.0000335562 -5.3333445188
347 1 0.0 -3.2000067113 9.6000201337 -3.2000067113
348 1 0.0 -5.3333445188 16.0000335562 -3.2000067113
349 1 0.0 -5.3333445188 13.8666957487 -1.0666689038
350 1 0.0 -5.3333445188 11.7333579412 -7.4666823263
351 1 0.0 -3.2000067113 11.7333579412 -1.0666689038
352 1 0.0 -3.2000067113 13.8666957487 -7.4666823263
353 1 0.0 -8.53335123 8.53335123 -4.266675615
354 1 0.0 -6.4000134225 10.6666890375 -2.1333378075
355 1 0.0 -8.53335123 12.800026845 -8.53335123
356 1 0.0 -2.1333378075 10.6666890375 -6.4000134225
357 1 0.0 -6.4000134225 14.9333646525 -6.4000134225
358 1 0.0 -2.1333378075 14.9333646525 -2.1333378075
359 1 0.0 -4.266675615 8.53335123 -8.53335123
360 1 0.0 -4.266675615 12.800026845 -4.266675615
361 2 0.0 -7.5037938707 9.5629085893 -1.0295573593
362 2 0.0 -7.4295707818 11.6962463968 -7.4295707818
363 2 0.0 -1.0295573593 11.7704694857 -5.2962329743
364 2 0.0 -1.1037804482 9.6371316782 -3.1628951668
365 2 0.0 -7.5037938707 16.0371451007 -7.5037938707
366 2 0.0 -7.4295707818 13.9038072932 -1.1037804482
367 2 0.0 -1.0295573593 13.8295842043 -3.2371182557
368 2 0.0 -1.1037804482 15.9629220118 -5.3704560632
369 2 0.0 -1.0295573593 9.5629085893 -7.5037938707
370 2 0.0 -7.4295707818 9.6371316782 -5.3704560632
371 2 0.0 -5.2962329743 16.0371451007 -5.2962329743
372 2 0.0 -3.1628951668 15.9629220118 -7.4295707818
373 2 0.0 -3.2371182557 16.0371451007 -3.2371182557
374 2 0.0 -5.3704560632 15.9629220118 -1.1037804482
375 2 0.0 -7.5037938707 11.7704694857 -3.2371182557
376 2 0.0 -5.3704560632 13.9038072932 -3.1628951668
377 2 0.0 -5.2962329743 13.8295842043 -7.5037938707
378 2 0.0 -5.2962329743 9.5629085893 -3.2371182557
379 2 0.0 -7.5037938707 13.8295842043 -5.2962329743
380 2 0.0 -5.2962329743 11.7704694857 -1.0295573593
381 2 0.0 -5.3704560632 9.6371316782 -7.4295707818
382 2 0.0 -1.1037804482 11.6962463968 -1.1037804482
383 2 0.0 -3.2371182557 11.7704694857 -7.5037938707
384 2 0.0 -3.1628951668 11.6962463968 -3.1628951668
385 2 0.0 -7.4295707818 15.9629220118 -3.1628951668
386 2 0.0 -1.1037804482 13.9038072932 -7.4295707818
387 2 0.0 -1.0295573593 16.0371451007 -1.0295573593
388 2 0.0 -5.3704560632 11.6962463968 -5.3704560632
389 2 0.0 -3.2371182557 9.5629085893 -5.2962329743
390 2 0.0 -3.1628951668 13.9038072932 -5.3704560632
391 2 0.0 -3.1628951668 9.6371316782 -1.1037804482
392 2 0.0 -3.2371182557 13.8295842043 -1.0295573593
393 1 0.0 -7.4666823263 9.6000201337 1.0666689037
394 1 0.0 -7.4666823263 11.7333579412 3.2000067112
395 1 0.0 -1.0666689038 11.7333579412 5.3333445187
396 1 0.0 -1.0666689038 9.6000201337 7.4666823262
397 1 0.0 -7.4666823263 16.0000335562 7.4666823262
398 1 0.0 -7.4666823263 13.8666957487 5.3333445187
399 1 0.0 -1.0666689038 13.8666957487 3.2000067112
400 1 0.0 -1.0666689038 16.0000335562 1.0666689037
401 1 0.0 -5.3333445188 9.6000201337 3.2000067112
402 1 0.0 -3.2000067113 16.0000335562 3.2000067112
403 1 0.0 -3.2000067113 9.6000201337 5.3333445187
404 1 0.0 -5.3333445188 16.0000335562 5.3333445187
405 1 0.0 -5.3333445188 13.8666957487 7.4666823262
406 1 0.0 -5.3333445188 11.7333579412 1.0666689037
407 1 0.0 -3.2000067113 11.7333579412 7.4666823262
408 1 0.0 -3.2000067113 13.8666957487 1.0666689037
409 1 0.0 -8.53335123 8.53335123 4.266675615
410 1 0.0 -6.4000134225 10.6666890375 6.4000134225
411 1 0.0 -8.53335123 12.800026845 0.0
412 1 0.0 -2.1333378075 10.6666890375 2.1333378075
413 1 0.0 -6.4000134225 14.9333646525 2.1333378075
414 1 0.0 -2.1333378075 14.9333646525 6.4000134225
415 1 0.0 -4.266675615 8.53335123 0.0
416 1 0.0 -4.266675615 12.800026845 4.266675615
417 2 0.0 -7.5037938707 9.5629085893 7.5037938707
418 2 0.0 -7.4295707818 11.6962463968 1.1037804482
419 2 0.0 -1.0295573593 11.7704694857 3.2371182557
420 2 0.0 -1.1037804482 9.6371316782 5.3704560632
421 2 0.0 -7.5037938707 16.0371451007 1.0295573593
422 2 0.0 -7.4295707818 13.9038072932 7.4295707818
423 2 0.0 -1.0295573593 13.8295842043 5.2962329743
424 2 0.0 -1.1037804482 15.9629220118 3.1628951668
425 2 0.0 -1.0295573593 9.5629085893 1.0295573593
426 2 0.0 -7.4295707818 9.6371316782 3.1628951668
427 2 0.0 -5.2962329743 16.0371451007 3.2371182557
428 2 0.0 -3.1628951668 15.9629220118 1.1037804482
429 2 0.0 -3.2371182557 16.0371451007 5.2962329743
430 2 0.0 -5.3704560632 15.9629220118 7.4295707818
431 2 0.0 -7.5037938707 11.7704694857 5.2962329743
432 2 0.0 -5.3704560632 13.9038072932 5.3704560632
433 2 0.0 -5.2962329743 13.8295842043 1.0295573593
434 2 0.0 -5.2962329743 9.5629085893 5.2962329743
435 2 0.0 -7.5037938707 13.8295842043 3.2371182557
436 2 0.0 -5.2962329743 11.7704694857 7.5037938707
437 2 0.0 -5.3704560632 9.6371316782 1.1037804482
438 2 0.0 -1.1037804482 11.6962463968 7.4295707818
439 2 0.0 -3.2371182557 11.7704694857 1.0295573593
440 2 0.0 -3.1628951668 11.6962463968 5.3704560632
441 2 0.0 -7.4295707818 15.9629220118 5.3704560632
442 2 0.0 -1.1037804482 13.9038072932 1.1037804482
443 2 0.0 -1.0295573593 16.0371451007 7.5037938707
444 2 0.0 -5.3704560632 11.6962463968 3.1628951668
445 2 0.0 -3.2371182557 9.5629085893 3.2371182557
446 2 0.0 -3.1628951668 13.9038072932 3.1628951668
447 2 0.0 -3.1628951668 9.6371316782 7.4295707818
448 2 0.0 -3.2371182557 13.8295842043 7.5037938707
449 1 0.0 -7.4666823263 9.6000201337 9.6000201337
450 1 0.0 -7.4666823263 11.7333579412 11.7333579412
451 1 0.0 -1.0666689038 11.7333579412 13.8666957487
452 1 0.0 -1.0666689038 9.6000201337 16.0000335562
453 1 0.0 -7.4666823263 16.0000335562 16.0000335562
454 1 0.0 -7.4666823263 13.8666957487 13.8666957487
455 1 0.0 -1.0666689038 13.8666957487 11.7333579412
456 1 0.0 -1.0666689038 16.0000335562 9.6000201337
457 1 0.0 -5.3333445188 9.6000201337 11.7333579412
458 1 0.0 -3.2000067113 16.0000335562 11.7333579412
459 1 0.0 -3.2000067113 9.6000201337 13.8666957487
460 1 0.0 -5.3333445188 16.0000335562 13.8666957487
461 1 0.0 -5.3333445188 13.8666957487 16.0000335562
462 1 0.0 -5.3333445188 11.7333579412 9.6000201337
463 1 0.0 -3.2000067113 11.7333579412 16.0000335562
464 1 0.0 -3.2000067113 13.8666957487 9.6000201337
465 1 0.0 -8.53335123 8.53335123 12.800026845
466 1 0.0 -6.4000134225 10.6666890375 14.9333646525
467 1 0.0 -8.53335123 12.800026845 8.53335123
468 1 0.0 -2.1333378075 10.6666890375 10.6666890375
469 1 0.0 -6.4000134225 14.9333646525 10.6666890375
470 1 0.0 -2.1333378075 14.9333646525 14.9333646525
471 1 0.0 -4.266675615 8.53335123 8.53335123
472 1 0.0 -4.266675615 12.800026845 12.800026845
473 2 0.0 -7.5037938707 9.5629085893 16.0371451007
474 2 0.0 -7.4295707818 11.6962463968 9.6371316782
475 2 0.0 -1.0295573593 11.7704694857 11.7704694857
476 2 0.0 -1.1037804482 9.6371316782 13.9038072932
477 2 0.0 -7.5037938707 16.0371451007 9.5629085893
478 2 0.0 -7.4295707818 13.9038072932 15.9629220118
479 2 0.0 -1.0295573593 13.8295842043 13.8295842043
480 2 0.0 -1.1037804482 15.9629220118 11.6962463968
481 2 0.0 -1.0295573593 9.5629085893 9.5629085893
482 2 0.0 -7.4295707818 9.6371316782 11.6962463968
483 2 0.0 -5.2962329743 16.0371451007 11.7704694857
484 2 0.0 -3.1628951668 15.9629220118 9.6371316782
485 2 0.0 -3.2371182557 16.0371451007 13.8295842043
486 2 0.0 -5.3704560632 15.9629220118 15.9629220118
487 2 0.0 -7.5037938707 11.7704694857 13.8295842043
488 2 0.0 -5.3704560632 13.9038072932 13.9038072932
489 2 0.0 -5.2962329743 13.8295842043 9.5629085893
490 2 0.0 -5.2962329743 9.5629085893 13.8295842043
491 2 0.0 -7.5037938707 13.8295842043 11.7704694857
492 2 0.0 -5.2962329743 11.7704694857 16.0371451007
493 2 0.0 -5.3704560632 9.6371316782 9.6371316782
494 2 0.0 -1.1037804482 11.6962463968 15.9629220118
495 2 0.0 -3.2371182557 11.7704694857 9.5629085893
496 2 0.0 -3.1628951668 11.6962463968 13.9038072932
497 2 0.0 -7.4295707818 15.9629220118 13.9038072932
498 2 0.0 -1.1037804482 13.9038072932 9.6371316782
499 2 0.0 -1.0295573593 16.0371451007 16.0371451007
500 2 0.0 -5.3704560632 11.6962463968 11.6962463968
501 2 0.0 -3.2371182557 9.5629085893 11.7704694857
502 2 0.0 -3.1628951668 13.9038072932 11.6962463968
503 2 0.0 -3.1628951668 9.6371316782 15.9629220118
504 2 0.0 -3.2371182557 13.8295842043 16.0371451007
505 1 0.0 1.0666689037 -7.4666823263 -7.4666823263
506 1 0.0 1.0666689037 -5.3333445188 -5.3333445188
507 1 0.0 7.4666823262 -5.3333445188 -3.2000067113
508 1 0.0 7.4666823262 -7.4666823263 -1.0666689038
509 1 0.0 1.0666689037 -1.0666689038 -1.0666689038
510 1 0.0 1.0666689037 -3.2000067113 -3.2000067113
511 1 0.0 7.4666823262 -3.2000067113 -5.3333445188
512 1 0.0 7.4666823262 -1.0666689038 -7.4666823263
513 1 0.0 3.2000067112 -7.4666823263 -5.3333445188
514 1 0.0 5.3333445187 -1.0666689038 -5.3333445188
515 1 0.0 5.3333445187 -7.4666823263 -3.2000067113
516 1 0.0 3.2000067112 -1.0666689038 -3.2000067113
517 1 0.0 3.2000067112 -3.2000067113 -1.0666689038
518 1 0.0 3.2000067112 -5.3333445188 -7.4666823263
519 1 0.0 5.3333445187 -5.3333445188 -1.0666689038
520 1 0.0 5.3333445187 -3.2000067113 -7.4666823263
521 1 0.0 0.0 -8.53335123 -4.266675615
522 1 0.0 2.1333378075 -6.4000134225 -2.1333378075
523 1 0.0 0.0 -4.266675615 -8.53335123
524 1 0.0 6.4000134225 -6.4000134225 -6.4000134225
525 1 0.0 2.1333378075 -2.1333378075 -6.4000134225
526 1 0.0 6.4000134225 -2.1333378075 -2.1333378075
527 1 0.0 4.266675615 -8.53335123 -8.53335123
528 1 0.0 4.266675615 -4.266675615 -4.266675615
529 2 0.0 1.0295573593 -7.5037938707 -1.0295573593
530 2 0.0 1.1037804482 -5.3704560632 -7.4295707818
531 2 0.0 7.5037938707 -5.2962329743 -5.2962329743
532 2 0.0 7.4295707818 -7.4295707818 -3.1628951668
533 2 0.0 1.0295573593 -1.0295573593 -7.5037938707
534 2 0.0 1.1037804482 -3.1628951668 -1.1037804482
535 2 0.0 7.5037938707 -3.2371182557 -3.2371182557
536 2 0.0 7.4295707818 -1.1037804482 -5.3704560632
537 2 0.0 7.5037938707 -7.5037938707 -7.5037938707
538 2 0.0 1.1037804482 -7.4295707818 -5.3704560632
539 2 0.0 3.2371182557 -1.0295573593 -5.2962329743
540 2 0.0 5.3704560632 -1.1037804482 -7.4295707818
541 2 0.0 5.2962329743 -1.0295573593 -3.2371182557
542 2 0.0 3.1628951668 -1.1037804482 -1.1037804482
543 2 0.0 1.0295573593 -5.2962329743 -3.2371182557
544 2 0.0 3.1628951668 -3.1628951668 -3.1628951668
545 2 0.0 3.2371182557 -3.2371182557 -7.5037938707
546 2 0.0 3.2371182557 -7.5037938707 -3.2371182557
547 2 0.0 1.0295573593 -3.2371182557 -5.2962329743
548 2 0.0 3.2371182557 -5.2962329743 -1.0295573593
549 2 0.0 3.1628951668 -7.4295707818 -7.4295707818
550 2 0.0 7.4295707818 -5.3704560632 -1.1037804482
551 2 0.0 5.2962329743 -5.2962329743 -7.5037938707
552 2 0.0 5.3704560632 -5.3704560632 -3.1628951668
553 2 0.0 1.1037804482 -1.1037804482 -3.1628951668
554 2 0.0 7.4295707818 -3.1628951668 -7.4295707818
555 2 0.0 7.5037938707 -1.0295573593 -1.0295573593
556 2 0.0 3.1628951668 -5.3704560632 -5.3704560632
557 2 0.0 5.2962329743 -7.5037938707 -5.2962329743
558 2 0.0 5.3704560632 -3.1628951668 -5.3704560632
559 2 0.0 5.3704560632 -7.4295707818 -1.1037804482
560 2 0.0 5.2962329743 -3.2371182557 -1.0295573593
561 1 0.0 1.0666689037 -7.4666823263 1.0666689037
562 1 0.0 1.0666689037 -5.3333445188 3.2000067112
563 1 0.0 7.4666823262 -5.3333445188 5.3333445187
564 1 0.0 7.4666823262 -7.4666823263 7.4666823262
565 1 0.0 1.0666689037 -1.0666689038 7.4666823262
566 1 0.0 1.0666689037 -3.2000067113 5.3333445187
567 1 0.0 7.4666823262 -3.2000067113 3.2000067112
568 1 0.0 7.4666823262 -1.0666689038 1.0666689037
569 1 0.0 3.2000067112 -7.4666823263 3.2000067112
570 1 0.0 5.3333445187 -1.0666689038 3.2000067112
571 1 0.0 5.3333445187 -7.4666823263 5.3333445187
572 1 0.0 3.2000067112 -1.0666689038 5.3333445187
573 1 0.0 3.2000067112 -3.2000067113 7.4666823262
574 1 0.0 3.2000067112 -5.3333445188 1.0666689037
575 1 0.0 5.3333445187 -5.3333445188 7.4666823262
576 1 0.0 5.3333445187 -3.2000067113 1.0666689037
577 1 0.0 0.0 -8.53335123 4.266675615
578 1 0.0 2.1333378075 -6.4000134225 6.4000134225
579 1 0.0 0.0 -4.266675615 0.0
580 1 0.0 6.4000134225 -6.4000134225 2.1333378075
581 1 0.0 2.1333378075 -2.1333378075 2.1333378075
582 1 0.0 6.4000134225 -2.1333378075 6.4000134225
583 1 0.0 4.266675615 -8.53335123 0.0
584 1 0.0 4.266675615 -4.266675615 4.266675615
585 2 0.0 1.0295573593 -7.5037938707 7.5037938707
586 2 0.0 1.1037804482 -5.3704560632 1.1037804482
587 2 0.0 7.5037938707 -5.2962329743 3.2371182557
588 2 0.0 7.4295707818 -7.4295707818 5.3704560632
589 2 0.0 1.0295573593 -1.0295573593 1.0295573593
590 2 0.0 1.1037804482 -3.1628951668 7.4295707818
591 2 0.0 7.5037938707 -3.2371182557 5.2962329743