 # Fe24 O32
 
          72  atoms
           2  atom types
 
      0.00000000       8.53335123  xlo xhi
      0.00000000       8.53335123  ylo yhi
      0.00000000       8.53335123  zlo zhi
 
Masses
 
           1   55.84500000    # Fe
           2   15.99900000    # O 
 
Atoms # atomic
 
         1    1 0.0 1.06666890       1.06666890       1.06666890
         2    1 0.0 0.00000000       0.00000000       4.26667561
         3    2 0.0 1.02955736       1.02955736       7.50379387
         4    1 0.0 7.46668233       3.20000671       3.20000671
         5    1 0.0 0.00000000       2.13333781       6.40001342
         6    2 0.0 7.50379387       3.16289517       1.10378045
         7    1 0.0 5.33334452       1.06666890       5.33334452
         8    1 0.0 6.40001342       2.13333781       0.00000000
         9    2 0.0 5.37045606       1.10378045       3.23711826
        10    1 0.0 7.46668233       7.46668233       7.46668233
        11    1 0.0 6.40001342       0.00000000       2.13333781
        12    2 0.0 7.42957078       7.50379387       5.37045606
        13    2 0.0 1.02955736       1.10378045       3.16289517
        14    2 0.0 7.50379387       7.50379387       1.02955736
        15    2 0.0 5.37045606       1.02955736       7.42957078
        16    2 0.0 7.42957078       3.16289517       5.29623297
        17    1 0.0 4.26667561       0.00000000       0.00000000
        18    2 0.0 7.50379387       1.02955736       1.02955736
        19    1 0.0 3.20000671       7.46668233       3.20000671
        20    2 0.0 1.10378045       7.50379387       3.16289517
        21    1 0.0 5.33334452       5.33334452       1.06666890
        22    1 0.0 0.00000000       6.40001342       2.13333781
        23    2 0.0 3.23711826       5.37045606       1.10378045
        24    1 0.0 2.13333781       6.40001342       0.00000000
        25    2 0.0 5.37045606       7.42957078       7.50379387
        26    2 0.0 3.16289517       1.02955736       1.10378045
        27    2 0.0 1.02955736       7.50379387       7.50379387
        28    2 0.0 7.42957078       5.37045606       1.02955736
        29    2 0.0 5.29623297       7.42957078       3.16289517
        30    2 0.0 7.50379387       1.10378045       3.16289517
        31    1 0.0 1.06666890       5.33334452       5.33334452
        32    2 0.0 1.02955736       3.23711826       5.29623297
        33    1 0.0 2.13333781       2.13333781       4.26667561
        34    2 0.0 3.16289517       5.37045606       3.23711826
        35    1 0.0 2.13333781       4.26667561       2.13333781
        36    2 0.0 1.10378045       7.50379387       1.10378045
        37    2 0.0 7.50379387       5.29623297       3.23711826
        38    2 0.0 1.02955736       3.16289517       1.10378045
        39    2 0.0 3.16289517       1.02955736       3.16289517
        40    2 0.0 1.10378045       7.42957078       5.29623297
        41    1 0.0 4.26667561       2.13333781       2.13333781
        42    2 0.0 1.02955736       3.16289517       3.16289517
        43    1 0.0 3.20000671       3.20000671       7.46668233
        44    1 0.0 0.00000000       4.26667561       0.00000000
        45    2 0.0 5.29623297       3.23711826       7.50379387
        46    2 0.0 5.37045606       3.23711826       3.16289517
        47    2 0.0 1.10378045       3.16289517       7.50379387
        48    2 0.0 7.42957078       1.10378045       5.29623297
        49    1 0.0 6.40001342       4.26667561       6.40001342
        50    2 0.0 3.16289517       5.29623297       5.37045606
        51    1 0.0 4.26667561       4.26667561       4.26667561
        52    2 0.0 3.23711826       1.10378045       5.37045606
        53    2 0.0 7.50379387       5.29623297       5.29623297
        54    1 0.0 6.40001342       6.40001342       4.26667561
        55    2 0.0 5.37045606       3.16289517       5.29623297
        56    2 0.0 5.29623297       7.42957078       1.10378045
        57    2 0.0 5.29623297       7.50379387       5.29623297
        58    2 0.0 5.37045606       3.23711826       1.10378045
        59    2 0.0 3.23711826       3.16289517       5.37045606
        60    1 0.0 2.13333781       0.00000000       6.40001342
        61    2 0.0 3.16289517       7.50379387       1.10378045
        62    2 0.0 3.16289517       3.16289517       1.02955736
        63    2 0.0 3.23711826       7.50379387       5.29623297
        64    1 0.0 4.26667561       6.40001342       6.40001342
        65    2 0.0 3.23711826       1.10378045       7.42957078
        66    2 0.0 7.42957078       5.37045606       7.50379387
        67    2 0.0 3.23711826       5.29623297       7.50379387
        68    2 0.0 7.42957078       1.02955736       7.42957078
        69    2 0.0 5.37045606       5.37045606       7.50379387
        70    2 0.0 1.02955736       5.29623297       3.23711826
        71    2 0.0 5.37045606       5.29623297       3.16289517
        72    2 0.0 1.02955736       5.37045606       7.42957078
