# LAMMPS data file written by Ovito 3.0.0-dev539
56000 atoms
2 atom types
-34.13340492 51.20010738 xlo xhi
-34.13340492 51.20010738 ylo yhi
-34.13340492 51.20010738 zlo zhi

Masses

1 55.845  # Fe
2 15.999  # O

Atoms  # charge

1 1 0.0 -33.0667360163 -33.0667360163 -33.0667360163
2 1 0.0 -33.0667360163 -30.9333982088 -30.9333982088
3 1 0.0 -26.6667225938 -30.9333982088 -28.8000604013
4 1 0.0 -26.6667225938 -33.0667360163 -26.6667225938
5 1 0.0 -33.0667360163 -26.6667225938 -26.6667225938
6 1 0.0 -33.0667360163 -28.8000604013 -28.8000604013
7 1 0.0 -26.6667225938 -28.8000604013 -30.9333982088
8 1 0.0 -26.6667225938 -26.6667225938 -33.0667360163
9 1 0.0 -30.9333982088 -33.0667360163 -30.9333982088
10 1 0.0 -28.8000604013 -26.6667225938 -30.9333982088
11 1 0.0 -28.8000604013 -33.0667360163 -28.8000604013
12 1 0.0 -30.9333982088 -26.6667225938 -28.8000604013
13 1 0.0 -30.9333982088 -28.8000604013 -26.6667225938
14 1 0.0 -30.9333982088 -30.9333982088 -33.0667360163
15 1 0.0 -28.8000604013 -30.9333982088 -26.6667225938
16 1 0.0 -28.8000604013 -28.8000604013 -33.0667360163
17 1 0.0 -34.13340492 -34.13340492 -29.866729305
18 1 0.0 -32.0000671125 -32.0000671125 -27.7333914975
19 1 0.0 -34.13340492 -29.866729305 -34.13340492
20 1 0.0 -27.7333914975 -32.0000671125 -32.0000671125
21 1 0.0 -32.0000671125 -27.7333914975 -32.0000671125
22 1 0.0 -27.7333914975 -27.7333914975 -27.7333914975
23 1 0.0 -29.866729305 -34.13340492 -34.13340492
24 1 0.0 -29.866729305 -29.866729305 -29.866729305
25 2 0.0 -33.1038475607 -33.1038475607 -26.6296110493
26 2 0.0 -33.0296244718 -30.9705097532 -33.0296244718
27 2 0.0 -26.6296110493 -30.8962866643 -30.8962866643
28 2 0.0 -26.7038341382 -33.0296244718 -28.7629488568
29 2 0.0 -33.1038475607 -26.6296110493 -33.1038475607
30 2 0.0 -33.0296244718 -28.7629488568 -26.7038341382
31 2 0.0 -26.6296110493 -28.8371719457 -28.8371719457
32 2 0.0 -26.7038341382 -26.7038341382 -30.9705097532
33 2 0.0 -26.6296110493 -33.1038475607 -33.1038475607
34 2 0.0 -33.0296244718 -33.0296244718 -30.9705097532
35 2 0.0 -30.8962866643 -26.6296110493 -30.8962866643
36 2 0.0 -28.7629488568 -26.7038341382 -33.0296244718
37 2 0.0 -28.8371719457 -26.6296110493 -28.8371719457
38 2 0.0 -30.9705097532 -26.7038341382 -26.7038341382
39 2 0.0 -33.1038475607 -30.8962866643 -28.8371719457
40 2 0.0 -30.9705097532 -28.7629488568 -28.7629488568
41 2 0.0 -30.8962866643 -28.8371719457 -33.1038475607
42 2 0.0 -30.8962866643 -33.1038475607 -28.8371719457
43 2 0.0 -33.1038475607 -28.8371719457 -30.8962866643
44 2 0.0 -30.8962866643 -30.8962866643 -26.6296110493
45 2 0.0 -30.9705097532 -33.0296244718 -33.0296244718
46 2 0.0 -26.7038341382 -30.9705097532 -26.7038341382
47 2 0.0 -28.8371719457 -30.8962866643 -33.1038475607
48 2 0.0 -28.7629488568 -30.9705097532 -28.7629488568
49 2 0.0 -33.0296244718 -26.7038341382 -28.7629488568
50 2 0.0 -26.7038341382 -28.7629488568 -33.0296244718
51 2 0.0 -26.6296110493 -26.6296110493 -26.6296110493
52 2 0.0 -30.9705097532 -30.9705097532 -30.9705097532
53 2 0.0 -28.8371719457 -33.1038475607 -30.8962866643
54 2 0.0 -28.7629488568 -28.7629488568 -30.9705097532
55 2 0.0 -28.7629488568 -33.0296244718 -26.7038341382
56 2 0.0 -28.8371719457 -28.8371719457 -26.6296110493
57 1 0.0 -33.0667360163 -33.0667360163 -24.5333847863
58 1 0.0 -33.0667360163 -30.9333982088 -22.4000469788
59 1 0.0 -26.6667225938 -30.9333982088 -20.2667091713
60 1 0.0 -26.6667225938 -33.0667360163 -18.1333713638
61 1 0.0 -33.0667360163 -26.6667225938 -18.1333713638
62 1 0.0 -33.0667360163 -28.8000604013 -20.2667091713
63 1 0.0 -26.6667225938 -28.8000604013 -22.4000469788
64 1 0.0 -26.6667225938 -26.6667225938 -24.5333847863
65 1 0.0 -30.9333982088 -33.0667360163 -22.4000469788
66 1 0.0 -28.8000604013 -26.6667225938 -22.4000469788
67 1 0.0 -28.8000604013 -33.0667360163 -20.2667091713
68 1 0.0 -30.9333982088 -26.6667225938 -20.2667091713
69 1 0.0 -30.9333982088 -28.8000604013 -18.1333713638
70 1 0.0 -30.9333982088 -30.9333982088 -24.5333847863
71 1 0.0 -28.8000604013 -30.9333982088 -18.1333713638
72 1 0.0 -28.8000604013 -28.8000604013 -24.5333847863
73 1 0.0 -34.13340492 -34.13340492 -21.333378075
74 1 0.0 -32.0000671125 -32.0000671125 -19.2000402675
75 1 0.0 -34.13340492 -29.866729305 -25.60005369
76 1 0.0 -27.7333914975 -32.0000671125 -23.4667158825
77 1 0.0 -32.0000671125 -27.7333914975 -23.4667158825
78 1 0.0 -27.7333914975 -27.7333914975 -19.2000402675
79 1 0.0 -29.866729305 -34.13340492 -25.60005369
80 1 0.0 -29.866729305 -29.866729305 -21.333378075
81 2 0.0 -33.1038475607 -33.1038475607 -18.0962598193
82 2 0.0 -33.0296244718 -30.9705097532 -24.4962732418
83 2 0.0 -26.6296110493 -30.8962866643 -22.3629354343
84 2 0.0 -26.7038341382 -33.0296244718 -20.2295976268
85 2 0.0 -33.1038475607 -26.6296110493 -24.5704963307
86 2 0.0 -33.0296244718 -28.7629488568 -18.1704829082
87 2 0.0 -26.6296110493 -28.8371719457 -20.3038207157
88 2 0.0 -26.7038341382 -26.7038341382 -22.4371585232
89 2 0.0 -26.6296110493 -33.1038475607 -24.5704963307
90 2 0.0 -33.0296244718 -33.0296244718 -22.4371585232
91 2 0.0 -30.8962866643 -26.6296110493 -22.3629354343
92 2 0.0 -28.7629488568 -26.7038341382 -24.4962732418
93 2 0.0 -28.8371719457 -26.6296110493 -20.3038207157
94 2 0.0 -30.9705097532 -26.7038341382 -18.1704829082
95 2 0.0 -33.1038475607 -30.8962866643 -20.3038207157
96 2 0.0 -30.9705097532 -28.7629488568 -20.2295976268
97 2 0.0 -30.8962866643 -28.8371719457 -24.5704963307
98 2 0.0 -30.8962866643 -33.1038475607 -20.3038207157
99 2 0.0 -33.1038475607 -28.8371719457 -22.3629354343
100 2 0.0 -30.8962866643 -30.8962866643 -18.0962598193
101 2 0.0 -30.9705097532 -33.0296244718 -24.4962732418
102 2 0.0 -26.7038341382 -30.9705097532 -18.1704829082
103 2 0.0 -28.8371719457 -30.8962866643 -24.5704963307
104 2 0.0 -28.7629488568 -30.9705097532 -20.2295976268
105 2 0.0 -33.0296244718 -26.7038341382 -20.2295976268
106 2 0.0 -26.7038341382 -28.7629488568 -24.4962732418
107 2 0.0 -26.6296110493 -26.6296110493 -18.0962598193
108 2 0.0 -30.9705097532 -30.9705097532 -22.4371585232
109 2 0.0 -28.8371719457 -33.1038475607 -22.3629354343
110 2 0.0 -28.7629488568 -28.7629488568 -22.4371585232
111 2 0.0 -28.7629488568 -33.0296244718 -18.1704829082
112 2 0.0 -28.8371719457 -28.8371719457 -18.0962598193
113 1 0.0 -33.0667360163 -33.0667360163 -16.0000335563
114 1 0.0 -33.0667360163 -30.9333982088 -13.8666957488
115 1 0.0 -26.6667225938 -30.9333982088 -11.7333579413
116 1 0.0 -26.6667225938 -33.0667360163 -9.6000201338
117 1 0.0 -33.0667360163 -26.6667225938 -9.6000201338
118 1 0.0 -33.0667360163 -28.8000604013 -11.7333579413
119 1 0.0 -26.6667225938 -28.8000604013 -13.8666957488
120 1 0.0 -26.6667225938 -26.6667225938 -16.0000335563
121 1 0.0 -30.9333982088 -33.0667360163 -13.8666957488
122 1 0.0 -28.8000604013 -26.6667225938 -13.8666957488
123 1 0.0 -28.8000604013 -33.0667360163 -11.7333579413
124 1 0.0 -30.9333982088 -26.6667225938 -11.7333579413
125 1 0.0 -30.9333982088 -28.8000604013 -9.6000201338
126 1 0.0 -30.9333982088 -30.9333982088 -16.0000335563
127 1 0.0 -28.8000604013 -30.9333982088 -9.6000201338
128 1 0.0 -28.8000604013 -28.8000604013 -16.0000335563
129 1 0.0 -34.13340492 -34.13340492 -12.800026845
130 1 0.0 -32.0000671125 -32.0000671125 -10.6666890375
131 1 0.0 -34.13340492 -29.866729305 -17.06670246
132 1 0.0 -27.7333914975 -32.0000671125 -14.9333646525
133 1 0.0 -32.0000671125 -27.7333914975 -14.9333646525
134 1 0.0 -27.7333914975 -27.7333914975 -10.6666890375
135 1 0.0 -29.866729305 -34.13340492 -17.06670246
136 1 0.0 -29.866729305 -29.866729305 -12.800026845
137 2 0.0 -33.1038475607 -33.1038475607 -9.5629085893
138 2 0.0 -33.0296244718 -30.9705097532 -15.9629220118
139 2 0.0 -26.6296110493 -30.8962866643 -13.8295842043
140 2 0.0 -26.7038341382 -33.0296244718 -11.6962463968
141 2 0.0 -33.1038475607 -26.6296110493 -16.0371451007
142 2 0.0 -33.0296244718 -28.7629488568 -9.6371316782
143 2 0.0 -26.6296110493 -28.8371719457 -11.7704694857
144 2 0.0 -26.7038341382 -26.7038341382 -13.9038072932
145 2 0.0 -26.6296110493 -33.1038475607 -16.0371451007
146 2 0.0 -33.0296244718 -33.0296244718 -13.9038072932
147 2 0.0 -30.8962866643 -26.6296110493 -13.8295842043
148 2 0.0 -28.7629488568 -26.7038341382 -15.9629220118
149 2 0.0 -28.8371719457 -26.6296110493 -11.7704694857
150 2 0.0 -30.9705097532 -26.7038341382 -9.6371316782
151 2 0.0 -33.1038475607 -30.8962866643 -11.7704694857
152 2 0.0 -30.9705097532 -28.7629488568 -11.6962463968
153 2 0.0 -30.8962866643 -28.8371719457 -16.0371451007
154 2 0.0 -30.8962866643 -33.1038475607 -11.7704694857
155 2 0.0 -33.1038475607 -28.8371719457 -13.8295842043
156 2 0.0 -30.8962866643 -30.8962866643 -9.5629085893
157 2 0.0 -30.9705097532 -33.0296244718 -15.9629220118
158 2 0.0 -26.7038341382 -30.9705097532 -9.6371316782
159 2 0.0 -28.8371719457 -30.8962866643 -16.0371451007
160 2 0.0 -28.7629488568 -30.9705097532 -11.6962463968
161 2 0.0 -33.0296244718 -26.7038341382 -11.6962463968
162 2 0.0 -26.7038341382 -28.7629488568 -15.9629220118
163 2 0.0 -26.6296110493 -26.6296110493 -9.5629085893
164 2 0.0 -30.9705097532 -30.9705097532 -13.9038072932
165 2 0.0 -28.8371719457 -33.1038475607 -13.8295842043
166 2 0.0 -28.7629488568 -28.7629488568 -13.9038072932
167 2 0.0 -28.7629488568 -33.0296244718 -9.6371316782
168 2 0.0 -28.8371719457 -28.8371719457 -9.5629085893
169 1 0.0 -33.0667360163 -33.0667360163 -7.4666823263
170 1 0.0 -33.0667360163 -30.9333982088 -5.3333445188
171 1 0.0 -26.6667225938 -30.9333982088 -3.2000067113
172 1 0.0 -26.6667225938 -33.0667360163 -1.0666689038
173 1 0.0 -33.0667360163 -26.6667225938 -1.0666689038
174 1 0.0 -33.0667360163 -28.8000604013 -3.2000067113
175 1 0.0 -26.6667225938 -28.8000604013 -5.3333445188
176 1 0.0 -26.6667225938 -26.6667225938 -7.4666823263
177 1 0.0 -30.9333982088 -33.0667360163 -5.3333445188
178 1 0.0 -28.8000604013 -26.6667225938 -5.3333445188
179 1 0.0 -28.8000604013 -33.0667360163 -3.2000067113
180 1 0.0 -30.9333982088 -26.6667225938 -3.2000067113
181 1 0.0 -30.9333982088 -28.8000604013 -1.0666689038
182 1 0.0 -30.9333982088 -30.9333982088 -7.4666823263
183 1 0.0 -28.8000604013 -30.9333982088 -1.0666689038
184 1 0.0 -28.8000604013 -28.8000604013 -7.4666823263
185 1 0.0 -34.13340492 -34.13340492 -4.266675615
186 1 0.0 -32.0000671125 -32.0000671125 -2.1333378075
187 1 0.0 -34.13340492 -29.866729305 -8.53335123
188 1 0.0 -27.7333914975 -32.0000671125 -6.4000134225
189 1 0.0 -32.0000671125 -27.7333914975 -6.4000134225
190 1 0.0 -27.7333914975 -27.7333914975 -2.1333378075
191 1 0.0 -29.866729305 -34.13340492 -8.53335123
192 1 0.0 -29.866729305 -29.866729305 -4.266675615
193 2 0.0 -33.1038475607 -33.1038475607 -1.0295573593
194 2 0.0 -33.0296244718 -30.9705097532 -7.4295707818
195 2 0.0 -26.6296110493 -30.8962866643 -5.2962329743
196 2 0.0 -26.7038341382 -33.0296244718 -3.1628951668
197 2 0.0 -33.1038475607 -26.6296110493 -7.5037938707
198 2 0.0 -33.0296244718 -28.7629488568 -1.1037804482
199 2 0.0 -26.6296110493 -28.8371719457 -3.2371182557
200 2 0.0 -26.7038341382 -26.7038341382 -5.3704560632
201 2 0.0 -26.6296110493 -33.1038475607 -7.5037938707
202 2 0.0 -33.0296244718 -33.0296244718 -5.3704560632
203 2 0.0 -30.8962866643 -26.6296110493 -5.2962329743
204 2 0.0 -28.7629488568 -26.7038341382 -7.4295707818
205 2 0.0 -28.8371719457 -26.6296110493 -3.2371182557
206 2 0.0 -30.9705097532 -26.7038341382 -1.1037804482
207 2 0.0 -33.1038475607 -30.8962866643 -3.2371182557
208 2 0.0 -30.9705097532 -28.7629488568 -3.1628951668
209 2 0.0 -30.8962866643 -28.8371719457 -7.5037938707
210 2 0.0 -30.8962866643 -33.1038475607 -3.2371182557
211 2 0.0 -33.1038475607 -28.8371719457 -5.2962329743
212 2 0.0 -30.8962866643 -30.8962866643 -1.0295573593
213 2 0.0 -30.9705097532 -33.0296244718 -7.4295707818
214 2 0.0 -26.7038341382 -30.9705097532 -1.1037804482
215 2 0.0 -28.8371719457 -30.8962866643 -7.5037938707
216 2 0.0 -28.7629488568 -30.9705097532 -3.1628951668
217 2 0.0 -33.0296244718 -26.7038341382 -3.1628951668
218 2 0.0 -26.7038341382 -28.7629488568 -7.4295707818
219 2 0.0 -26.6296110493 -26.6296110493 -1.0295573593
220 2 0.0 -30.9705097532 -30.9705097532 -5.3704560632
221 2 0.0 -28.8371719457 -33.1038475607 -5.2962329743
222 2 0.0 -28.7629488568 -28.7629488568 -5.3704560632
223 2 0.0 -28.7629488568 -33.0296244718 -1.1037804482
224 2 0.0 -28.8371719457 -28.8371719457 -1.0295573593
225 1 0.0 -33.0667360163 -33.0667360163 1.0666689037
226 1 0.0 -33.0667360163 -30.9333982088 3.2000067112
227 1 0.0 -26.6667225938 -30.9333982088 5.3333445187
228 1 0.0 -26.6667225938 -33.0667360163 7.4666823262
229 1 0.0 -33.0667360163 -26.6667225938 7.4666823262
230 1 0.0 -33.0667360163 -28.8000604013 5.3333445187
231 1 0.0 -26.6667225938 -28.8000604013 3.2000067112
232 1 0.0 -26.6667225938 -26.6667225938 1.0666689037
233 1 0.0 -30.9333982088 -33.0667360163 3.2000067112
234 1 0.0 -28.8000604013 -26.6667225938 3.2000067112
235 1 0.0 -28.8000604013 -33.0667360163 5.3333445187
236 1 0.0 -30.9333982088 -26.6667225938 5.3333445187
237 1 0.0 -30.9333982088 -28.8000604013 7.4666823262
238 1 0.0 -30.9333982088 -30.9333982088 1.0666689037
239 1 0.0 -28.8000604013 -30.9333982088 7.4666823262
240 1 0.0 -28.8000604013 -28.8000604013 1.0666689037
241 1 0.0 -34.13340492 -34.13340492 4.266675615
242 1 0.0 -32.0000671125 -32.0000671125 6.4000134225
243 1 0.0 -34.13340492 -29.866729305 0.0
244 1 0.0 -27.7333914975 -32.0000671125 2.1333378075
245 1 0.0 -32.0000671125 -27.7333914975 2.1333378075
246 1 0.0 -27.7333914975 -27.7333914975 6.4000134225
247 1 0.0 -29.866729305 -34.13340492 0.0
248 1 0.0 -29.866729305 -29.866729305 4.266675615
249 2 0.0 -33.1038475607 -33.1038475607 7.5037938707
250 2 0.0 -33.0296244718 -30.9705097532 1.1037804482
251 2 0.0 -26.6296110493 -30.8962866643 3.2371182557
252 2 0.0 -26.7038341382 -33.0296244718 5.3704560632
253 2 0.0 -33.1038475607 -26.6296110493 1.0295573593
254 2 0.0 -33.0296244718 -28.7629488568 7.4295707818
255 2 0.0 -26.6296110493 -28.8371719457 5.2962329743
256 2 0.0 -26.7038341382 -26.7038341382 3.1628951668
257 2 0.0 -26.6296110493 -33.1038475607 1.0295573593
258 2 0.0 -33.0296244718 -33.0296244718 3.1628951668
259 2 0.0 -30.8962866643 -26.6296110493 3.2371182557
260 2 0.0 -28.7629488568 -26.7038341382 1.1037804482
261 2 0.0 -28.8371719457 -26.6296110493 5.2962329743
262 2 0.0 -30.9705097532 -26.7038341382 7.4295707818
263 2 0.0 -33.1038475607 -30.8962866643 5.2962329743
264 2 0.0 -30.9705097532 -28.7629488568 5.3704560632
265 2 0.0 -30.8962866643 -28.8371719457 1.0295573593
266 2 0.0 -30.8962866643 -33.1038475607 5.2962329743
267 2 0.0 -33.1038475607 -28.8371719457 3.2371182557
268 2 0.0 -30.8962866643 -30.8962866643 7.5037938707
269 2 0.0 -30.9705097532 -33.0296244718 1.1037804482
270 2 0.0 -26.7038341382 -30.9705097532 7.4295707818
271 2 0.0 -28.8371719457 -30.8962866643 1.0295573593
272 2 0.0 -28.7629488568 -30.9705097532 5.3704560632
273 2 0.0 -33.0296244718 -26.7038341382 5.3704560632
274 2 0.0 -26.7038341382 -28.7629488568 1.1037804482
275 2 0.0 -26.6296110493 -26.6296110493 7.5037938707
276 2 0.0 -30.9705097532 -30.9705097532 3.1628951668
277 2 0.0 -28.8371719457 -33.1038475607 3.2371182557
278 2 0.0 -28.7629488568 -28.7629488568 3.1628951668
279 2 0.0 -28.7629488568 -33.0296244718 7.4295707818
280 2 0.0 -28.8371719457 -28.8371719457 7.5037938707
281 1 0.0 -33.0667360163 -33.0667360163 9.6000201337
282 1 0.0 -33.0667360163 -30.9333982088 11.7333579412
283 1 0.0 -26.6667225938 -30.9333982088 13.8666957487
284 1 0.0 -26.6667225938 -33.0667360163 16.0000335562
285 1 0.0 -33.0667360163 -26.6667225938 16.0000335562
286 1 0.0 -33.0667360163 -28.8000604013 13.8666957487
287 1 0.0 -26.6667225938 -28.8000604013 11.7333579412
288 1 0.0 -26.6667225938 -26.6667225938 9.6000201337
289 1 0.0 -30.9333982088 -33.0667360163 11.7333579412
290 1 0.0 -28.8000604013 -26.6667225938 11.7333579412
291 1 0.0 -28.8000604013 -33.0667360163 13.8666957487
292 1 0.0 -30.9333982088 -26.6667225938 13.8666957487
293 1 0.0 -30.9333982088 -28.8000604013 16.0000335562
294 1 0.0 -30.9333982088 -30.9333982088 9.6000201337
295 1 0.0 -28.8000604013 -30.9333982088 16.0000335562
296 1 0.0 -28.8000604013 -28.8000604013 9.6000201337
297 1 0.0 -34.13340492 -34.13340492 12.800026845
298 1 0.0 -32.0000671125 -32.0000671125 14.9333646525
299 1 0.0 -34.13340492 -29.866729305 8.53335123
300 1 0.0 -27.7333914975 -32.0000671125 10.6666890375
301 1 0.0 -32.0000671125 -27.7333914975 10.6666890375
302 1 0.0 -27.7333914975 -27.7333914975 14.9333646525
303 1 0.0 -29.866729305 -34.13340492 8.53335123
304 1 0.0 -29.866729305 -29.866729305 12.800026845
305 2 0.0 -33.1038475607 -33.1038475607 16.0371451007
306 2 0.0 -33.0296244718 -30.9705097532 9.6371316782
307 2 0.0 -26.6296110493 -30.8962866643 11.7704694857
308 2 0.0 -26.7038341382 -33.0296244718 13.9038072932
309 2 0.0 -33.1038475607 -26.6296110493 9.5629085893
310 2 0.0 -33.0296244718 -28.7629488568 15.9629220118
311 2 0.0 -26.6296110493 -28.8371719457 13.8295842043
312 2 0.0 -26.7038341382 -26.7038341382 11.6962463968
313 2 0.0 -26.6296110493 -33.1038475607 9.5629085893
314 2 0.0 -33.0296244718 -33.0296244718 11.6962463968
315 2 0.0 -30.8962866643 -26.6296110493 11.7704694857
316 2 0.0 -28.7629488568 -26.7038341382 9.6371316782
317 2 0.0 -28.8371719457 -26.6296110493 13.8295842043
318 2 0.0 -30.9705097532 -26.7038341382 15.9629220118
319 2 0.0 -33.1038475607 -30.8962866643 13.8295842043
320 2 0.0 -30.9705097532 -28.7629488568 13.9038072932
321 2 0.0 -30.8962866643 -28.8371719457 9.5629085893
322 2 0.0 -30.8962866643 -33.1038475607 13.8295842043
323 2 0.0 -33.1038475607 -28.8371719457 11.7704694857
324 2 0.0 -30.8962866643 -30.8962866643 16.0371451007
325 2 0.0 -30.9705097532 -33.0296244718 9.6371316782
326 2 0.0 -26.7038341382 -30.9705097532 15.9629220118
327 2 0.0 -28.8371719457 -30.8962866643 9.5629085893
328 2 0.0 -28.7629488568 -30.9705097532 13.9038072932
329 2 0.0 -33.0296244718 -26.7038341382 13.9038072932
330 2 0.0 -26.7038341382 -28.7629488568 9.6371316782
331 2 0.0 -26.6296110493 -26.6296110493 16.0371451007
332 2 0.0 -30.9705097532 -30.9705097532 11.6962463968
333 2 0.0 -28.8371719457 -33.1038475607 11.7704694857
334 2 0.0 -28.7629488568 -28.7629488568 11.6962463968
335 2 0.0 -28.7629488568 -33.0296244718 15.9629220118
336 2 0.0 -28.8371719457 -28.8371719457 16.0371451007
337 1 0.0 -33.0667360163 -33.0667360163 18.1333713637
338 1 0.0 -33.0667360163 -30.9333982088 20.2667091712
339 1 0.0 -26.6667225938 -30.9333982088 22.4000469787
340 1 0.0 -26.6667225938 -33.0667360163 24.5333847862
341 1 0.0 -33.0667360163 -26.6667225938 24.5333847862
342 1 0.0 -33.0667360163 -28.8000604013 22.4000469787
343 1 0.0 -26.6667225938 -28.8000604013 20.2667091712
344 1 0.0 -26.6667225938 -26.6667225938 18.1333713637
345 1 0.0 -30.9333982088 -33.0667360163 20.2667091712
346 1 0.0 -28.8000604013 -26.6667225938 20.2667091712
347 1 0.0 -28.8000604013 -33.0667360163 22.4000469787
348 1 0.0 -30.9333982088 -26.6667225938 22.4000469787
349 1 0.0 -30.9333982088 -28.8000604013 24.5333847862
350 1 0.0 -30.9333982088 -30.9333982088 18.1333713637
351 1 0.0 -28.8000604013 -30.9333982088 24.5333847862
352 1 0.0 -28.8000604013 -28.8000604013 18.1333713637
353 1 0.0 -34.13340492 -34.13340492 21.333378075
354 1 0.0 -32.0000671125 -32.0000671125 23.4667158825
355 1 0.0 -34.13340492 -29.866729305 17.06670246
356 1 0.0 -27.7333914975 -32.0000671125 19.2000402675
357 1 0.0 -32.0000671125 -27.7333914975 19.2000402675
358 1 0.0 -27.7333914975 -27.7333914975 23.4667158825
359 1 0.0 -29.866729305 -34.13340492 17.06670246
360 1 0.0 -29.866729305 -29.866729305 21.333378075
361 2 0.0 -33.1038475607 -33.1038475607 24.5704963307
362 2 0.0 -33.0296244718 -30.9705097532 18.1704829082
363 2 0.0 -26.6296110493 -30.8962866643 20.3038207157
364 2 0.0 -26.7038341382 -33.0296244718 22.4371585232
365 2 0.0 -33.1038475607 -26.6296110493 18.0962598193
366 2 0.0 -33.0296244718 -28.7629488568 24.4962732418
367 2 0.0 -26.6296110493 -28.8371719457 22.3629354343
368 2 0.0 -26.7038341382 -26.7038341382 20.2295976268
369 2 0.0 -26.6296110493 -33.1038475607 18.0962598193
370 2 0.0 -33.0296244718 -33.0296244718 20.2295976268
371 2 0.0 -30.8962866643 -26.6296110493 20.3038207157
372 2 0.0 -28.7629488568 -26.7038341382 18.1704829082
373 2 0.0 -28.8371719457 -26.6296110493 22.3629354343
374 2 0.0 -30.9705097532 -26.7038341382 24.4962732418
375 2 0.0 -33.1038475607 -30.8962866643 22.3629354343
376 2 0.0 -30.9705097532 -28.7629488568 22.4371585232
377 2 0.0 -30.8962866643 -28.8371719457 18.0962598193
378 2 0.0 -30.8962866643 -33.1038475607 22.3629354343
379 2 0.0 -33.1038475607 -28.8371719457 20.3038207157
380 2 0.0 -30.8962866643 -30.8962866643 24.5704963307
381 2 0.0 -30.9705097532 -33.0296244718 18.1704829082
382 2 0.0 -26.7038341382 -30.9705097532 24.4962732418
383 2 0.0 -28.8371719457 -30.8962866643 18.0962598193
384 2 0.0 -28.7629488568 -30.9705097532 22.4371585232
385 2 0.0 -33.0296244718 -26.7038341382 22.4371585232
386 2 0.0 -26.7038341382 -28.7629488568 18.1704829082
387 2 0.0 -26.6296110493 -26.6296110493 24.5704963307
388 2 0.0 -30.9705097532 -30.9705097532 20.2295976268
389 2 0.0 -28.8371719457 -33.1038475607 20.3038207157
390 2 0.0 -28.7629488568 -28.7629488568 20.2295976268
391 2 0.0 -28.7629488568 -33.0296244718 24.4962732418
392 2 0.0 -28.8371719457 -28.8371719457 24.5704963307
393 1 0.0 -33.0667360163 -33.0667360163 26.6667225937
394 1 0.0 -33.0667360163 -30.9333982088 28.8000604012
395 1 0.0 -26.6667225938 -30.9333982088 30.9333982087
396 1 0.0 -26.6667225938 -33.0667360163 33.0667360162
397 1 0.0 -33.0667360163 -26.6667225938 33.0667360162
398 1 0.0 -33.0667360163 -28.8000604013 30.9333982087
399 1 0.0 -26.6667225938 -28.8000604013 28.8000604012
400 1 0.0 -26.6667225938 -26.6667225938 26.6667225937
401 1 0.0 -30.9333982088 -33.0667360163 28.8000604012
402 1 0.0 -28.8000604013 -26.6667225938 28.8000604012
403 1 0.0 -28.8000604013 -33.0667360163 30.9333982087
404 1 0.0 -30.9333982088 -26.6667225938 30.9333982087
405 1 0.0 -30.9333982088 -28.8000604013 33.0667360162
406 1 0.0 -30.9333982088 -30.9333982088 26.6667225937
407 1 0.0 -28.8000604013 -30.9333982088 33.0667360162
408 1 0.0 -28.8000604013 -28.8000604013 26.6667225937
409 1 0.0 -34.13340492 -34.13340492 29.866729305
410 1 0.0 -32.0000671125 -32.0000671125 32.0000671125
411 1 0.0 -34.13340492 -29.866729305 25.60005369
412 1 0.0 -27.7333914975 -32.0000671125 27.7333914975
413 1 0.0 -32.0000671125 -27.7333914975 27.7333914975
414 1 0.0 -27.7333914975 -27.7333914975 32.0000671125
415 1 0.0 -29.866729305 -34.13340492 25.60005369
416 1 0.0 -29.866729305 -29.866729305 29.866729305
417 2 0.0 -33.1038475607 -33.1038475607 33.1038475607
418 2 0.0 -33.0296244718 -30.9705097532 26.7038341382
419 2 0.0 -26.6296110493 -30.8962866643 28.8371719457
420 2 0.0 -26.7038341382 -33.0296244718 30.9705097532
421 2 0.0 -33.1038475607 -26.6296110493 26.6296110493
422 2 0.0 -33.0296244718 -28.7629488568 33.0296244718
423 2 0.0 -26.6296110493 -28.8371719457 30.8962866643
424 2 0.0 -26.7038341382 -26.7038341382 28.7629488568
425 2 0.0 -26.6296110493 -33.1038475607 26.6296110493
426 2 0.0 -33.0296244718 -33.0296244718 28.7629488568
427 2 0.0 -30.8962866643 -26.6296110493 28.8371719457
428 2 0.0 -28.7629488568 -26.7038341382 26.7038341382
429 2 0.0 -28.8371719457 -26.6296110493 30.8962866643
430 2 0.0 -30.9705097532 -26.7038341382 33.0296244718
431 2 0.0 -33.1038475607 -30.8962866643 30.8962866643
432 2 0.0 -30.9705097532 -28.7629488568 30.9705097532
433 2 0.0 -30.8962866643 -28.8371719457 26.6296110493
434 2 0.0 -30.8962866643 -33.1038475607 30.8962866643
435 2 0.0 -33.1038475607 -28.8371719457 28.8371719457
436 2 0.0 -30.8962866643 -30.8962866643 33.1038475607
437 2 0.0 -30.9705097532 -33.0296244718 26.7038341382
438 2 0.0 -26.7038341382 -30.9705097532 33.0296244718
439 2 0.0 -28.8371719457 -30.8962866643 26.6296110493
440 2 0.0 -28.7629488568 -30.9705097532 30.9705097532
441 2 0.0 -33.0296244718 -26.7038341382 30.9705097532
442 2 0.0 -26.7038341382 -28.7629488568 26.7038341382
443 2 0.0 -26.6296110493 -26.6296110493 33.1038475607
444 2 0.0 -30.9705097532 -30.9705097532 28.7629488568
445 2 0.0 -28.8371719457 -33.1038475607 28.8371719457
446 2 0.0 -28.7629488568 -28.7629488568 28.7629488568
447 2 0.0 -28.7629488568 -33.0296244718 33.0296244718
448 2 0.0 -28.8371719457 -28.8371719457 33.1038475607
449 1 0.0 -33.0667360163 -33.0667360163 35.2000738237
450 1 0.0 -33.0667360163 -30.9333982088 37.3334116312
451 1 0.0 -26.6667225938 -30.9333982088 39.4667494387
452 1 0.0 -26.6667225938 -33.0667360163 41.6000872462
453 1 0.0 -33.0667360163 -26.6667225938 41.6000872462
454 1 0.0 -33.0667360163 -28.8000604013 39.4667494387
455 1 0.0 -26.6667225938 -28.8000604013 37.3334116312
456 1 0.0 -26.6667225938 -26.6667225938 35.2000738237
457 1 0.0 -30.9333982088 -33.0667360163 37.3334116312
458 1 0.0 -28.8000604013 -26.6667225938 37.3334116312
459 1 0.0 -28.8000604013 -33.0667360163 39.4667494387
460 1 0.0 -30.9333982088 -26.6667225938 39.4667494387
461 1 0.0 -30.9333982088 -28.8000604013 41.6000872462
462 1 0.0 -30.9333982088 -30.9333982088 35.2000738237
463 1 0.0 -28.8000604013 -30.9333982088 41.6000872462
464 1 0.0 -28.8000604013 -28.8000604013 35.2000738237
465 1 0.0 -34.13340492 -34.13340492 38.400080535
466 1 0.0 -32.0000671125 -32.0000671125 40.5334183425
467 1 0.0 -34.13340492 -29.866729305 34.13340492
468 1 0.0 -27.7333914975 -32.0000671125 36.2667427275
469 1 0.0 -32.0000671125 -27.7333914975 36.2667427275
470 1 0.0 -27.7333914975 -27.7333914975 40.5334183425
471 1 0.0 -29.866729305 -34.13340492 34.13340492
472 1 0.0 -29.866729305 -29.866729305 38.400080535
473 2 0.0 -33.1038475607 -33.1038475607 41.6371987907
474 2 0.0 -33.0296244718 -30.9705097532 35.2371853682
475 2 0.0 -26.6296110493 -30.8962866643 37.3705231757
476 2 0.0 -26.7038341382 -33.0296244718 39.5038609832
477 2 0.0 -33.1038475607 -26.6296110493 35.1629622793
478 2 0.0 -33.0296244718 -28.7629488568 41.5629757018
479 2 0.0 -26.6296110493 -28.8371719457 39.4296378943
480 2 0.0 -26.7038341382 -26.7038341382 37.2963000868
481 2 0.0 -26.6296110493 -33.1038475607 35.1629622793
482 2 0.0 -33.0296244718 -33.0296244718 37.2963000868
483 2 0.0 -30.8962866643 -26.6296110493 37.3705231757
484 2 0.0 -28.7629488568 -26.7038341382 35.2371853682
485 2 0.0 -28.8371719457 -26.6296110493 39.4296378943
486 2 0.0 -30.9705097532 -26.7038341382 41.5629757018
487 2 0.0 -33.1038475607 -30.8962866643 39.4296378943
488 2 0.0 -30.9705097532 -28.7629488568 39.5038609832
489 2 0.0 -30.8962866643 -28.8371719457 35.1629622793
490 2 0.0 -30.8962866643 -33.1038475607 39.4296378943
491 2 0.0 -33.1038475607 -28.8371719457 37.3705231757
492 2 0.0 -30.8962866643 -30.8962866643 41.6371987907
493 2 0.0 -30.9705097532 -33.0296244718 35.2371853682
494 2 0.0 -26.7038341382 -30.9705097532 41.5629757018
495 2 0.0 -28.8371719457 -30.8962866643 35.1629622793
496 2 0.0 -28.7629488568 -30.9705097532 39.5038609832
497 2 0.0 -33.0296244718 -26.7038341382 39.5038609832
498 2 0.0 -26.7038341382 -28.7629488568 35.2371853682
499 2 0.0 -26.6296110493 -26.6296110493 41.6371987907
500 2 0.0 -30.9705097532 -30.9705097532 37.2963000868
501 2 0.0 -28.8371719457 -33.1038475607 37.3705231757
502 2 0.0 -28.7629488568 -28.7629488568 37.2963000868
503 2 0.0 -28.7629488568 -33.0296244718 41.5629757018
504 2 0.0 -28.8371719457 -28.8371719457 41.6371987907
505 1 0.0 -33.0667360163 -33.0667360163 43.7334250537
506 1 0.0 -33.0667360163 -30.9333982088 45.8667628612
507 1 0.0 -26.6667225938 -30.9333982088 48.0001006687
508 1 0.0 -26.6667225938 -33.0667360163 50.1334384762
509 1 0.0 -33.0667360163 -26.6667225938 50.1334384762
510 1 0.0 -33.0667360163 -28.8000604013 48.0001006687
511 1 0.0 -26.6667225938 -28.8000604013 45.8667628612
512 1 0.0 -26.6667225938 -26.6667225938 43.7334250537
513 1 0.0 -30.9333982088 -33.0667360163 45.8667628612
514 1 0.0 -28.8000604013 -26.6667225938 45.8667628612
515 1 0.0 -28.8000604013 -33.0667360163 48.0001006687
516 1 0.0 -30.9333982088 -26.6667225938 48.0001006687
517 1 0.0 -30.9333982088 -28.8000604013 50.1334384762
518 1 0.0 -30.9333982088 -30.9333982088 43.7334250537
519 1 0.0 -28.8000604013 -30.9333982088 50.1334384762
520 1 0.0 -28.8000604013 -28.8000604013 43.7334250537
521 1 0.0 -34.13340492 -34.13340492 46.933431765
522 1 0.0 -32.0000671125 -32.0000671125 49.0667695725
523 1 0.0 -34.13340492 -29.866729305 42.66675615
524 1 0.0 -27.7333914975 -32.0000671125 44.8000939575
525 1 0.0 -32.0000671125 -27.7333914975 44.8000939575
526 1 0.0 -27.7333914975 -27.7333914975 49.0667695725
527 1 0.0 -29.866729305 -34.13340492 42.66675615
528 1 0.0 -29.866729305 -29.866729305 46.933431765
529 2 0.0 -33.1038475607 -33.1038475607 50.1705500207
530 2 0.0 -33.0296244718 -30.9705097532 43.7705365982
531 2 0.0 -26.6296110493 -30.8962866643 45.9038744057
532 2 0.0 -26.7038341382 -33.0296244718 48.0372122132
533 2 0.0 -33.1038475607 -26.6296110493 43.6963135093
534 2 0.0 -33.0296244718 -28.7629488568 50.0963269318
535 2 0.0 -26.6296110493 -28.8371719457 47.9629891243
536 2 0.0 -26.7038341382 -26.7038341382 45.8296513168
537 2 0.0 -26.6296110493 -33.1038475607 43.6963135093
538 2 0.0 -33.0296244718 -33.0296244718 45.8296513168
539 2 0.0 -30.8962866643 -26.6296110493 45.9038744057
540 2 0.0 -28.7629488568 -26.7038341382 43.7705365982
541 2 0.0 -28.8371719457 -26.6296110493 47.9629891243
542 2 0.0 -30.9705097532 -26.7038341382 50.0963269318
543 2 0.0 -33.1038475607 -30.8962866643 47.9629891243
544 2 0.0 -30.9705097532 -28.7629488568 48.0372122132
545 2 0.0 -30.8962866643 -28.8371719457 43.6963135093
546 2 0.0 -30.8962866643 -33.1038475607 47.9629891243
547 2 0.0 -33.1038475607 -28.8371719457 45.9038744057
548 2 0.0 -30.8962866643 -30.8962866643 50.1705500207
549 2 0.0 -30.9705097532 -33.0296244718 43.7705365982
550 2 0.0 -26.7038341382 -30.9705097532 50.0963269318
551 2 0.0 -28.8371719457 -30.8962866643 43.6963135093
552 2 0.0 -28.7629488568 -30.9705097532 48.0372122132
553 2 0.0 -33.0296244718 -26.7038341382 48.0372122132
554 2 0.0 -26.7038341382 -28.7629488568 43.7705365982
555 2 0.0 -26.6296110493 -26.6296110493 50.1705500207