# LAMMPS data file written by Ovito 3.0.0-dev539

#56 atoms
55 atoms
2 atom types

0.0 8.53335123 xlo xhi
0.0 8.53335123 ylo yhi
0.0 8.53335123 zlo zhi

Masses
 
           1   55.84500000    # Fe
           2   15.99900000    # O 

Atoms  # charge

1 1 0.0 1.0666689037 1.0666689037 1.0666689037
2 1 0.0 1.0666689037 3.2000067112 3.2000067112
3 1 0.0 7.4666823262 3.2000067112 5.3333445187
4 1 0.0 7.4666823262 1.0666689037 7.4666823262
5 1 0.0 1.0666689037 7.4666823262 7.4666823262
6 1 0.0 1.0666689037 5.3333445187 5.3333445187
7 1 0.0 7.4666823262 5.3333445187 3.2000067112
8 1 0.0 7.4666823262 7.4666823262 1.0666689037
9 1 0.0 3.2000067112 1.0666689037 3.2000067112
10 1 0.0 5.3333445187 7.4666823262 3.2000067112
11 1 0.0 5.3333445187 1.0666689037 5.3333445187
12 1 0.0 3.2000067112 7.4666823262 5.3333445187
13 1 0.0 3.2000067112 5.3333445187 7.4666823262
14 1 0.0 3.2000067112 3.2000067112 1.0666689037
15 1 0.0 5.3333445187 3.2000067112 7.4666823262
16 1 0.0 5.3333445187 5.3333445187 1.0666689037
17 1 0.0 0.0 0.0 4.266675615
18 1 0.0 2.1333378075 2.1333378075 6.4000134225
19 1 0.0 0.0 4.266675615 0.0
20 1 0.0 6.4000134225 2.1333378075 2.1333378075
21 1 0.0 2.1333378075 6.4000134225 2.1333378075
22 1 0.0 6.4000134225 6.4000134225 6.4000134225
23 1 0.0 4.266675615 0.0 0.0
24 1 0.0 4.266675615 4.266675615 4.266675615
25 2 0.0 1.0295573593 1.0295573593 7.5037938707
26 2 0.0 1.1037804482 3.1628951668 1.1037804482
27 2 0.0 7.5037938707 3.2371182557 3.2371182557
28 2 0.0 7.4295707818 1.1037804482 5.3704560632
29 2 0.0 1.0295573593 7.5037938707 1.0295573593
30 2 0.0 1.1037804482 5.3704560632 7.4295707818
31 2 0.0 7.5037938707 5.2962329743 5.2962329743
32 2 0.0 7.4295707818 7.4295707818 3.1628951668
33 2 0.0 7.5037938707 1.0295573593 1.0295573593
34 2 0.0 1.1037804482 1.1037804482 3.1628951668
35 2 0.0 3.2371182557 7.5037938707 3.2371182557
36 2 0.0 5.3704560632 7.4295707818 1.1037804482
37 2 0.0 5.2962329743 7.5037938707 5.2962329743
38 2 0.0 3.1628951668 7.4295707818 7.4295707818
39 2 0.0 1.0295573593 3.2371182557 5.2962329743
40 2 0.0 3.1628951668 5.3704560632 5.3704560632
41 2 0.0 3.2371182557 5.2962329743 1.0295573593
42 2 0.0 3.2371182557 1.0295573593 5.2962329743
43 2 0.0 1.0295573593 5.2962329743 3.2371182557
44 2 0.0 3.2371182557 3.2371182557 7.5037938707
45 2 0.0 3.1628951668 1.1037804482 1.1037804482
46 2 0.0 7.4295707818 3.1628951668 7.4295707818
47 2 0.0 5.2962329743 3.2371182557 1.0295573593
48 2 0.0 5.3704560632 3.1628951668 5.3704560632
49 2 0.0 1.1037804482 7.4295707818 5.3704560632
50 2 0.0 7.4295707818 5.3704560632 1.1037804482
51 2 0.0 7.5037938707 7.5037938707 7.5037938707
52 2 0.0 3.1628951668 3.1628951668 3.1628951668
53 2 0.0 5.2962329743 1.0295573593 3.2371182557
54 2 0.0 5.3704560632 5.3704560632 3.1628951668
55 2 0.0 5.3704560632 1.1037804482 7.4295707818
#56 2 0.0 5.2962329743 5.2962329743 7.5037938707
