# LAMMPS data file written by Ovito 3.0.0-dev539
7000 atoms
2 atom types
-17.06670246 25.60005369 xlo xhi
-17.06670246 25.60005369 ylo yhi
-17.06670246 25.60005369 zlo zhi

Masses

1 55.845  # Fe
2 15.999  # O

Atoms  # charge

1 1 0.0 -16.0000335563 -16.0000335563 -16.0000335563
2 1 0.0 -16.0000335563 -13.8666957488 -13.8666957488
3 1 0.0 -9.6000201338 -13.8666957488 -11.7333579413
4 1 0.0 -9.6000201338 -16.0000335563 -9.6000201338
5 1 0.0 -16.0000335563 -9.6000201338 -9.6000201338
6 1 0.0 -16.0000335563 -11.7333579413 -11.7333579413
7 1 0.0 -9.6000201338 -11.7333579413 -13.8666957488
8 1 0.0 -9.6000201338 -9.6000201338 -16.0000335563
9 1 0.0 -13.8666957488 -16.0000335563 -13.8666957488
10 1 0.0 -11.7333579413 -9.6000201338 -13.8666957488
11 1 0.0 -11.7333579413 -16.0000335563 -11.7333579413
12 1 0.0 -13.8666957488 -9.6000201338 -11.7333579413
13 1 0.0 -13.8666957488 -11.7333579413 -9.6000201338
14 1 0.0 -13.8666957488 -13.8666957488 -16.0000335563
15 1 0.0 -11.7333579413 -13.8666957488 -9.6000201338
16 1 0.0 -11.7333579413 -11.7333579413 -16.0000335563
17 1 0.0 -17.06670246 -17.06670246 -12.800026845
18 1 0.0 -14.9333646525 -14.9333646525 -10.6666890375
19 1 0.0 -17.06670246 -12.800026845 -17.06670246
20 1 0.0 -10.6666890375 -14.9333646525 -14.9333646525
21 1 0.0 -14.9333646525 -10.6666890375 -14.9333646525
22 1 0.0 -10.6666890375 -10.6666890375 -10.6666890375
23 1 0.0 -12.800026845 -17.06670246 -17.06670246
24 1 0.0 -12.800026845 -12.800026845 -12.800026845
25 2 0.0 -16.0371451007 -16.0371451007 -9.5629085893
26 2 0.0 -15.9629220118 -13.9038072932 -15.9629220118
27 2 0.0 -9.5629085893 -13.8295842043 -13.8295842043
28 2 0.0 -9.6371316782 -15.9629220118 -11.6962463968
29 2 0.0 -16.0371451007 -9.5629085893 -16.0371451007
30 2 0.0 -15.9629220118 -11.6962463968 -9.6371316782
31 2 0.0 -9.5629085893 -11.7704694857 -11.7704694857
32 2 0.0 -9.6371316782 -9.6371316782 -13.9038072932
33 2 0.0 -9.5629085893 -16.0371451007 -16.0371451007
34 2 0.0 -15.9629220118 -15.9629220118 -13.9038072932
35 2 0.0 -13.8295842043 -9.5629085893 -13.8295842043
36 2 0.0 -11.6962463968 -9.6371316782 -15.9629220118
37 2 0.0 -11.7704694857 -9.5629085893 -11.7704694857
38 2 0.0 -13.9038072932 -9.6371316782 -9.6371316782
39 2 0.0 -16.0371451007 -13.8295842043 -11.7704694857
40 2 0.0 -13.9038072932 -11.6962463968 -11.6962463968
41 2 0.0 -13.8295842043 -11.7704694857 -16.0371451007
42 2 0.0 -13.8295842043 -16.0371451007 -11.7704694857
43 2 0.0 -16.0371451007 -11.7704694857 -13.8295842043
44 2 0.0 -13.8295842043 -13.8295842043 -9.5629085893
45 2 0.0 -13.9038072932 -15.9629220118 -15.9629220118
46 2 0.0 -9.6371316782 -13.9038072932 -9.6371316782
47 2 0.0 -11.7704694857 -13.8295842043 -16.0371451007
48 2 0.0 -11.6962463968 -13.9038072932 -11.6962463968
49 2 0.0 -15.9629220118 -9.6371316782 -11.6962463968
50 2 0.0 -9.6371316782 -11.6962463968 -15.9629220118
51 2 0.0 -9.5629085893 -9.5629085893 -9.5629085893
52 2 0.0 -13.9038072932 -13.9038072932 -13.9038072932
53 2 0.0 -11.7704694857 -16.0371451007 -13.8295842043
54 2 0.0 -11.6962463968 -11.6962463968 -13.9038072932
55 2 0.0 -11.6962463968 -15.9629220118 -9.6371316782
56 2 0.0 -11.7704694857 -11.7704694857 -9.5629085893
57 1 0.0 -16.0000335563 -16.0000335563 -7.4666823263
58 1 0.0 -16.0000335563 -13.8666957488 -5.3333445188
59 1 0.0 -9.6000201338 -13.8666957488 -3.2000067113
60 1 0.0 -9.6000201338 -16.0000335563 -1.0666689038
61 1 0.0 -16.0000335563 -9.6000201338 -1.0666689038
62 1 0.0 -16.0000335563 -11.7333579413 -3.2000067113
63 1 0.0 -9.6000201338 -11.7333579413 -5.3333445188
64 1 0.0 -9.6000201338 -9.6000201338 -7.4666823263
65 1 0.0 -13.8666957488 -16.0000335563 -5.3333445188
66 1 0.0 -11.7333579413 -9.6000201338 -5.3333445188
67 1 0.0 -11.7333579413 -16.0000335563 -3.2000067113
68 1 0.0 -13.8666957488 -9.6000201338 -3.2000067113
69 1 0.0 -13.8666957488 -11.7333579413 -1.0666689038
70 1 0.0 -13.8666957488 -13.8666957488 -7.4666823263
71 1 0.0 -11.7333579413 -13.8666957488 -1.0666689038
72 1 0.0 -11.7333579413 -11.7333579413 -7.4666823263
73 1 0.0 -17.06670246 -17.06670246 -4.266675615
74 1 0.0 -14.9333646525 -14.9333646525 -2.1333378075
75 1 0.0 -17.06670246 -12.800026845 -8.53335123
76 1 0.0 -10.6666890375 -14.9333646525 -6.4000134225
77 1 0.0 -14.9333646525 -10.6666890375 -6.4000134225
78 1 0.0 -10.6666890375 -10.6666890375 -2.1333378075
79 1 0.0 -12.800026845 -17.06670246 -8.53335123
80 1 0.0 -12.800026845 -12.800026845 -4.266675615
81 2 0.0 -16.0371451007 -16.0371451007 -1.0295573593
82 2 0.0 -15.9629220118 -13.9038072932 -7.4295707818
83 2 0.0 -9.5629085893 -13.8295842043 -5.2962329743
84 2 0.0 -9.6371316782 -15.9629220118 -3.1628951668
85 2 0.0 -16.0371451007 -9.5629085893 -7.5037938707
86 2 0.0 -15.9629220118 -11.6962463968 -1.1037804482
87 2 0.0 -9.5629085893 -11.7704694857 -3.2371182557
88 2 0.0 -9.6371316782 -9.6371316782 -5.3704560632
89 2 0.0 -9.5629085893 -16.0371451007 -7.5037938707
90 2 0.0 -15.9629220118 -15.9629220118 -5.3704560632
91 2 0.0 -13.8295842043 -9.5629085893 -5.2962329743
92 2 0.0 -11.6962463968 -9.6371316782 -7.4295707818
93 2 0.0 -11.7704694857 -9.5629085893 -3.2371182557
94 2 0.0 -13.9038072932 -9.6371316782 -1.1037804482
95 2 0.0 -16.0371451007 -13.8295842043 -3.2371182557
96 2 0.0 -13.9038072932 -11.6962463968 -3.1628951668
97 2 0.0 -13.8295842043 -11.7704694857 -7.5037938707
98 2 0.0 -13.8295842043 -16.0371451007 -3.2371182557
99 2 0.0 -16.0371451007 -11.7704694857 -5.2962329743
100 2 0.0 -13.8295842043 -13.8295842043 -1.0295573593
101 2 0.0 -13.9038072932 -15.9629220118 -7.4295707818
102 2 0.0 -9.6371316782 -13.9038072932 -1.1037804482
103 2 0.0 -11.7704694857 -13.8295842043 -7.5037938707
104 2 0.0 -11.6962463968 -13.9038072932 -3.1628951668
105 2 0.0 -15.9629220118 -9.6371316782 -3.1628951668
106 2 0.0 -9.6371316782 -11.6962463968 -7.4295707818
107 2 0.0 -9.5629085893 -9.5629085893 -1.0295573593
108 2 0.0 -13.9038072932 -13.9038072932 -5.3704560632
109 2 0.0 -11.7704694857 -16.0371451007 -5.2962329743
110 2 0.0 -11.6962463968 -11.6962463968 -5.3704560632
111 2 0.0 -11.6962463968 -15.9629220118 -1.1037804482
112 2 0.0 -11.7704694857 -11.7704694857 -1.0295573593
113 1 0.0 -16.0000335563 -16.0000335563 1.0666689037
114 1 0.0 -16.0000335563 -13.8666957488 3.2000067112
115 1 0.0 -9.6000201338 -13.8666957488 5.3333445187
116 1 0.0 -9.6000201338 -16.0000335563 7.4666823262
117 1 0.0 -16.0000335563 -9.6000201338 7.4666823262
118 1 0.0 -16.0000335563 -11.7333579413 5.3333445187
119 1 0.0 -9.6000201338 -11.7333579413 3.2000067112
120 1 0.0 -9.6000201338 -9.6000201338 1.0666689037
121 1 0.0 -13.8666957488 -16.0000335563 3.2000067112
122 1 0.0 -11.7333579413 -9.6000201338 3.2000067112
123 1 0.0 -11.7333579413 -16.0000335563 5.3333445187
124 1 0.0 -13.8666957488 -9.6000201338 5.3333445187
125 1 0.0 -13.8666957488 -11.7333579413 7.4666823262
126 1 0.0 -13.8666957488 -13.8666957488 1.0666689037
127 1 0.0 -11.7333579413 -13.8666957488 7.4666823262
128 1 0.0 -11.7333579413 -11.7333579413 1.0666689037
129 1 0.0 -17.06670246 -17.06670246 4.266675615
130 1 0.0 -14.9333646525 -14.9333646525 6.4000134225
131 1 0.0 -17.06670246 -12.800026845 0.0
132 1 0.0 -10.6666890375 -14.9333646525 2.1333378075
133 1 0.0 -14.9333646525 -10.6666890375 2.1333378075
134 1 0.0 -10.6666890375 -10.6666890375 6.4000134225
135 1 0.0 -12.800026845 -17.06670246 0.0
136 1 0.0 -12.800026845 -12.800026845 4.266675615
137 2 0.0 -16.0371451007 -16.0371451007 7.5037938707
138 2 0.0 -15.9629220118 -13.9038072932 1.1037804482
139 2 0.0 -9.5629085893 -13.8295842043 3.2371182557
140 2 0.0 -9.6371316782 -15.9629220118 5.3704560632
141 2 0.0 -16.0371451007 -9.5629085893 1.0295573593
142 2 0.0 -15.9629220118 -11.6962463968 7.4295707818
143 2 0.0 -9.5629085893 -11.7704694857 5.2962329743
144 2 0.0 -9.6371316782 -9.6371316782 3.1628951668
145 2 0.0 -9.5629085893 -16.0371451007 1.0295573593
146 2 0.0 -15.9629220118 -15.9629220118 3.1628951668
147 2 0.0 -13.8295842043 -9.5629085893 3.2371182557
148 2 0.0 -11.6962463968 -9.6371316782 1.1037804482
149 2 0.0 -11.7704694857 -9.5629085893 5.2962329743
150 2 0.0 -13.9038072932 -9.6371316782 7.4295707818
151 2 0.0 -16.0371451007 -13.8295842043 5.2962329743
152 2 0.0 -13.9038072932 -11.6962463968 5.3704560632
153 2 0.0 -13.8295842043 -11.7704694857 1.0295573593
154 2 0.0 -13.8295842043 -16.0371451007 5.2962329743
155 2 0.0 -16.0371451007 -11.7704694857 3.2371182557
156 2 0.0 -13.8295842043 -13.8295842043 7.5037938707
157 2 0.0 -13.9038072932 -15.9629220118 1.1037804482
158 2 0.0 -9.6371316782 -13.9038072932 7.4295707818
159 2 0.0 -11.7704694857 -13.8295842043 1.0295573593
160 2 0.0 -11.6962463968 -13.9038072932 5.3704560632
161 2 0.0 -15.9629220118 -9.6371316782 5.3704560632
162 2 0.0 -9.6371316782 -11.6962463968 1.1037804482
163 2 0.0 -9.5629085893 -9.5629085893 7.5037938707
164 2 0.0 -13.9038072932 -13.9038072932 3.1628951668
165 2 0.0 -11.7704694857 -16.0371451007 3.2371182557
166 2 0.0 -11.6962463968 -11.6962463968 3.1628951668
167 2 0.0 -11.6962463968 -15.9629220118 7.4295707818
168 2 0.0 -11.7704694857 -11.7704694857 7.5037938707
169 1 0.0 -16.0000335563 -16.0000335563 9.6000201337
170 1 0.0 -16.0000335563 -13.8666957488 11.7333579412
171 1 0.0 -9.6000201338 -13.8666957488 13.8666957487
172 1 0.0 -9.6000201338 -16.0000335563 16.0000335562
173 1 0.0 -16.0000335563 -9.6000201338 16.0000335562
174 1 0.0 -16.0000335563 -11.7333579413 13.8666957487
175 1 0.0 -9.6000201338 -11.7333579413 11.7333579412
176 1 0.0 -9.6000201338 -9.6000201338 9.6000201337
177 1 0.0 -13.8666957488 -16.0000335563 11.7333579412
178 1 0.0 -11.7333579413 -9.6000201338 11.7333579412
179 1 0.0 -11.7333579413 -16.0000335563 13.8666957487
180 1 0.0 -13.8666957488 -9.6000201338 13.8666957487
181 1 0.0 -13.8666957488 -11.7333579413 16.0000335562
182 1 0.0 -13.8666957488 -13.8666957488 9.6000201337
183 1 0.0 -11.7333579413 -13.8666957488 16.0000335562
184 1 0.0 -11.7333579413 -11.7333579413 9.6000201337
185 1 0.0 -17.06670246 -17.06670246 12.800026845
186 1 0.0 -14.9333646525 -14.9333646525 14.9333646525
187 1 0.0 -17.06670246 -12.800026845 8.53335123
188 1 0.0 -10.6666890375 -14.9333646525 10.6666890375
189 1 0.0 -14.9333646525 -10.6666890375 10.6666890375
190 1 0.0 -10.6666890375 -10.6666890375 14.9333646525
191 1 0.0 -12.800026845 -17.06670246 8.53335123
192 1 0.0 -12.800026845 -12.800026845 12.800026845
193 2 0.0 -16.0371451007 -16.0371451007 16.0371451007
194 2 0.0 -15.9629220118 -13.9038072932 9.6371316782
195 2 0.0 -9.5629085893 -13.8295842043 11.7704694857
196 2 0.0 -9.6371316782 -15.9629220118 13.9038072932
197 2 0.0 -16.0371451007 -9.5629085893 9.5629085893
198 2 0.0 -15.9629220118 -11.6962463968 15.9629220118
199 2 0.0 -9.5629085893 -11.7704694857 13.8295842043
200 2 0.0 -9.6371316782 -9.6371316782 11.6962463968
201 2 0.0 -9.5629085893 -16.0371451007 9.5629085893
202 2 0.0 -15.9629220118 -15.9629220118 11.6962463968
203 2 0.0 -13.8295842043 -9.5629085893 11.7704694857
204 2 0.0 -11.6962463968 -9.6371316782 9.6371316782
205 2 0.0 -11.7704694857 -9.5629085893 13.8295842043
206 2 0.0 -13.9038072932 -9.6371316782 15.9629220118
207 2 0.0 -16.0371451007 -13.8295842043 13.8295842043
208 2 0.0 -13.9038072932 -11.6962463968 13.9038072932
209 2 0.0 -13.8295842043 -11.7704694857 9.5629085893
210 2 0.0 -13.8295842043 -16.0371451007 13.8295842043
211 2 0.0 -16.0371451007 -11.7704694857 11.7704694857
212 2 0.0 -13.8295842043 -13.8295842043 16.0371451007
213 2 0.0 -13.9038072932 -15.9629220118 9.6371316782
214 2 0.0 -9.6371316782 -13.9038072932 15.9629220118
215 2 0.0 -11.7704694857 -13.8295842043 9.5629085893
216 2 0.0 -11.6962463968 -13.9038072932 13.9038072932
217 2 0.0 -15.9629220118 -9.6371316782 13.9038072932
218 2 0.0 -9.6371316782 -11.6962463968 9.6371316782
219 2 0.0 -9.5629085893 -9.5629085893 16.0371451007
220 2 0.0 -13.9038072932 -13.9038072932 11.6962463968
221 2 0.0 -11.7704694857 -16.0371451007 11.7704694857
222 2 0.0 -11.6962463968 -11.6962463968 11.6962463968
223 2 0.0 -11.6962463968 -15.9629220118 15.9629220118
224 2 0.0 -11.7704694857 -11.7704694857 16.0371451007
225 1 0.0 -16.0000335563 -16.0000335563 18.1333713637
226 1 0.0 -16.0000335563 -13.8666957488 20.2667091712
227 1 0.0 -9.6000201338 -13.8666957488 22.4000469787
228 1 0.0 -9.6000201338 -16.0000335563 24.5333847862
229 1 0.0 -16.0000335563 -9.6000201338 24.5333847862
230 1 0.0 -16.0000335563 -11.7333579413 22.4000469787
231 1 0.0 -9.6000201338 -11.7333579413 20.2667091712
232 1 0.0 -9.6000201338 -9.6000201338 18.1333713637
233 1 0.0 -13.8666957488 -16.0000335563 20.2667091712
234 1 0.0 -11.7333579413 -9.6000201338 20.2667091712
235 1 0.0 -11.7333579413 -16.0000335563 22.4000469787
236 1 0.0 -13.8666957488 -9.6000201338 22.4000469787
237 1 0.0 -13.8666957488 -11.7333579413 24.5333847862
238 1 0.0 -13.8666957488 -13.8666957488 18.1333713637
239 1 0.0 -11.7333579413 -13.8666957488 24.5333847862
240 1 0.0 -11.7333579413 -11.7333579413 18.1333713637
241 1 0.0 -17.06670246 -17.06670246 21.333378075
242 1 0.0 -14.9333646525 -14.9333646525 23.4667158825
243 1 0.0 -17.06670246 -12.800026845 17.06670246
244 1 0.0 -10.6666890375 -14.9333646525 19.2000402675
245 1 0.0 -14.9333646525 -10.6666890375 19.2000402675
246 1 0.0 -10.6666890375 -10.6666890375 23.4667158825
247 1 0.0 -12.800026845 -17.06670246 17.06670246
248 1 0.0 -12.800026845 -12.800026845 21.333378075
249 2 0.0 -16.0371451007 -16.0371451007 24.5704963307
250 2 0.0 -15.9629220118 -13.9038072932 18.1704829082
251 2 0.0 -9.5629085893 -13.8295842043 20.3038207157
252 2 0.0 -9.6371316782 -15.9629220118 22.4371585232
253 2 0.0 -16.0371451007 -9.5629085893 18.0962598193
254 2 0.0 -15.9629220118 -11.6962463968 24.4962732418
255 2 0.0 -9.5629085893 -11.7704694857 22.3629354343
256 2 0.0 -9.6371316782 -9.6371316782 20.2295976268
257 2 0.0 -9.5629085893 -16.0371451007 18.0962598193
258 2 0.0 -15.9629220118 -15.9629220118 20.2295976268
259 2 0.0 -13.8295842043 -9.5629085893 20.3038207157
260 2 0.0 -11.6962463968 -9.6371316782 18.1704829082
261 2 0.0 -11.7704694857 -9.5629085893 22.3629354343
262 2 0.0 -13.9038072932 -9.6371316782 24.4962732418
263 2 0.0 -16.0371451007 -13.8295842043 22.3629354343
264 2 0.0 -13.9038072932 -11.6962463968 22.4371585232
265 2 0.0 -13.8295842043 -11.7704694857 18.0962598193
266 2 0.0 -13.8295842043 -16.0371451007 22.3629354343
267 2 0.0 -16.0371451007 -11.7704694857 20.3038207157
268 2 0.0 -13.8295842043 -13.8295842043 24.5704963307
269 2 0.0 -13.9038072932 -15.9629220118 18.1704829082
270 2 0.0 -9.6371316782 -13.9038072932 24.4962732418
271 2 0.0 -11.7704694857 -13.8295842043 18.0962598193
272 2 0.0 -11.6962463968 -13.9038072932 22.4371585232
273 2 0.0 -15.9629220118 -9.6371316782 22.4371585232
274 2 0.0 -9.6371316782 -11.6962463968 18.1704829082
275 2 0.0 -9.5629085893 -9.5629085893 24.5704963307
276 2 0.0 -13.9038072932 -13.9038072932 20.2295976268
277 2 0.0 -11.7704694857 -16.0371451007 20.3038207157
278 2 0.0 -11.6962463968 -11.6962463968 20.2295976268
279 2 0.0 -11.6962463968 -15.9629220118 24.4962732418
280 2 0.0 -11.7704694857 -11.7704694857 24.5704963307
281 1 0.0 -16.0000335563 -7.4666823263 -16.0000335563
282 1 0.0 -16.0000335563 -5.3333445188 -13.8666957488
283 1 0.0 -9.6000201338 -5.3333445188 -11.7333579413
284 1 0.0 -9.6000201338 -7.4666823263 -9.6000201338
285 1 0.0 -16.0000335563 -1.0666689038 -9.6000201338
286 1 0.0 -16.0000335563 -3.2000067113 -11.7333579413
287 1 0.0 -9.6000201338 -3.2000067113 -13.8666957488
288 1 0.0 -9.6000201338 -1.0666689038 -16.0000335563
289 1 0.0 -13.8666957488 -7.4666823263 -13.8666957488
290 1 0.0 -11.7333579413 -1.0666689038 -13.8666957488
291 1 0.0 -11.7333579413 -7.4666823263 -11.7333579413
292 1 0.0 -13.8666957488 -1.0666689038 -11.7333579413
293 1 0.0 -13.8666957488 -3.2000067113 -9.6000201338
294 1 0.0 -13.8666957488 -5.3333445188 -16.0000335563
295 1 0.0 -11.7333579413 -5.3333445188 -9.6000201338
296 1 0.0 -11.7333579413 -3.2000067113 -16.0000335563
297 1 0.0 -17.06670246 -8.53335123 -12.800026845
298 1 0.0 -14.9333646525 -6.4000134225 -10.6666890375
299 1 0.0 -17.06670246 -4.266675615 -17.06670246
300 1 0.0 -10.6666890375 -6.4000134225 -14.9333646525
301 1 0.0 -14.9333646525 -2.1333378075 -14.9333646525
302 1 0.0 -10.6666890375 -2.1333378075 -10.6666890375
303 1 0.0 -12.800026845 -8.53335123 -17.06670246
304 1 0.0 -12.800026845 -4.266675615 -12.800026845
305 2 0.0 -16.0371451007 -7.5037938707 -9.5629085893
306 2 0.0 -15.9629220118 -5.3704560632 -15.9629220118
307 2 0.0 -9.5629085893 -5.2962329743 -13.8295842043
308 2 0.0 -9.6371316782 -7.4295707818 -11.6962463968
309 2 0.0 -16.0371451007 -1.0295573593 -16.0371451007
310 2 0.0 -15.9629220118 -3.1628951668 -9.6371316782
311 2 0.0 -9.5629085893 -3.2371182557 -11.7704694857
312 2 0.0 -9.6371316782 -1.1037804482 -13.9038072932
313 2 0.0 -9.5629085893 -7.5037938707 -16.0371451007
314 2 0.0 -15.9629220118 -7.4295707818 -13.9038072932
315 2 0.0 -13.8295842043 -1.0295573593 -13.8295842043
316 2 0.0 -11.6962463968 -1.1037804482 -15.9629220118
317 2 0.0 -11.7704694857 -1.0295573593 -11.7704694857
318 2 0.0 -13.9038072932 -1.1037804482 -9.6371316782
319 2 0.0 -16.0371451007 -5.2962329743 -11.7704694857
320 2 0.0 -13.9038072932 -3.1628951668 -11.6962463968
321 2 0.0 -13.8295842043 -3.2371182557 -16.0371451007
322 2 0.0 -13.8295842043 -7.5037938707 -11.7704694857
323 2 0.0 -16.0371451007 -3.2371182557 -13.8295842043
324 2 0.0 -13.8295842043 -5.2962329743 -9.5629085893
325 2 0.0 -13.9038072932 -7.4295707818 -15.9629220118
326 2 0.0 -9.6371316782 -5.3704560632 -9.6371316782
327 2 0.0 -11.7704694857 -5.2962329743 -16.0371451007
328 2 0.0 -11.6962463968 -5.3704560632 -11.6962463968
329 2 0.0 -15.9629220118 -1.1037804482 -11.6962463968
330 2 0.0 -9.6371316782 -3.1628951668 -15.9629220118
331 2 0.0 -9.5629085893 -1.0295573593 -9.5629085893
332 2 0.0 -13.9038072932 -5.3704560632 -13.9038072932
333 2 0.0 -11.7704694857 -7.5037938707 -13.8295842043
334 2 0.0 -11.6962463968 -3.1628951668 -13.9038072932
335 2 0.0 -11.6962463968 -7.4295707818 -9.6371316782
336 2 0.0 -11.7704694857 -3.2371182557 -9.5629085893
337 1 0.0 -16.0000335563 -7.4666823263 -7.4666823263
338 1 0.0 -16.0000335563 -5.3333445188 -5.3333445188
339 1 0.0 -9.6000201338 -5.3333445188 -3.2000067113
340 1 0.0 -9.6000201338 -7.4666823263 -1.0666689038
341 1 0.0 -16.0000335563 -1.0666689038 -1.0666689038
342 1 0.0 -16.0000335563 -3.2000067113 -3.2000067113
343 1 0.0 -9.6000201338 -3.2000067113 -5.3333445188
344 1 0.0 -9.6000201338 -1.0666689038 -7.4666823263
345 1 0.0 -13.8666957488 -7.4666823263 -5.3333445188
346 1 0.0 -11.7333579413 -1.0666689038 -5.3333445188
347 1 0.0 -11.7333579413 -7.4666823263 -3.2000067113
348 1 0.0 -13.8666957488 -1.0666689038 -3.2000067113
349 1 0.0 -13.8666957488 -3.2000067113 -1.0666689038
350 1 0.0 -13.8666957488 -5.3333445188 -7.4666823263
351 1 0.0 -11.7333579413 -5.3333445188 -1.0666689038
352 1 0.0 -11.7333579413 -3.2000067113 -7.4666823263
353 1 0.0 -17.06670246 -8.53335123 -4.266675615
354 1 0.0 -14.9333646525 -6.4000134225 -2.1333378075
355 1 0.0 -17.06670246 -4.266675615 -8.53335123
356 1 0.0 -10.6666890375 -6.4000134225 -6.4000134225
357 1 0.0 -14.9333646525 -2.1333378075 -6.4000134225
358 1 0.0 -10.6666890375 -2.1333378075 -2.1333378075
359 1 0.0 -12.800026845 -8.53335123 -8.53335123
360 1 0.0 -12.800026845 -4.266675615 -4.266675615
361 2 0.0 -16.0371451007 -7.5037938707 -1.0295573593
362 2 0.0 -15.9629220118 -5.3704560632 -7.4295707818
363 2 0.0 -9.5629085893 -5.2962329743 -5.2962329743
364 2 0.0 -9.6371316782 -7.4295707818 -3.1628951668
365 2 0.0 -16.0371451007 -1.0295573593 -7.5037938707
366 2 0.0 -15.9629220118 -3.1628951668 -1.1037804482
367 2 0.0 -9.5629085893 -3.2371182557 -3.2371182557
368 2 0.0 -9.6371316782 -1.1037804482 -5.3704560632
369 2 0.0 -9.5629085893 -7.5037938707 -7.5037938707
370 2 0.0 -15.9629220118 -7.4295707818 -5.3704560632
371 2 0.0 -13.8295842043 -1.0295573593 -5.2962329743
372 2 0.0 -11.6962463968 -1.1037804482 -7.4295707818
373 2 0.0 -11.7704694857 -1.0295573593 -3.2371182557
374 2 0.0 -13.9038072932 -1.1037804482 -1.1037804482
375 2 0.0 -16.0371451007 -5.2962329743 -3.2371182557
376 2 0.0 -13.9038072932 -3.1628951668 -3.1628951668
377 2 0.0 -13.8295842043 -3.2371182557 -7.5037938707
378 2 0.0 -13.8295842043 -7.5037938707 -3.2371182557
379 2 0.0 -16.0371451007 -3.2371182557 -5.2962329743
380 2 0.0 -13.8295842043 -5.2962329743 -1.0295573593
381 2 0.0 -13.9038072932 -7.4295707818 -7.4295707818
382 2 0.0 -9.6371316782 -5.3704560632 -1.1037804482
383 2 0.0 -11.7704694857 -5.2962329743 -7.5037938707
384 2 0.0 -11.6962463968 -5.3704560632 -3.1628951668
385 2 0.0 -15.9629220118 -1.1037804482 -3.1628951668
386 2 0.0 -9.6371316782 -3.1628951668 -7.4295707818
387 2 0.0 -9.5629085893 -1.0295573593 -1.0295573593
388 2 0.0 -13.9038072932 -5.3704560632 -5.3704560632
389 2 0.0 -11.7704694857 -7.5037938707 -5.2962329743
390 2 0.0 -11.6962463968 -3.1628951668 -5.3704560632
391 2 0.0 -11.6962463968 -7.4295707818 -1.1037804482
392 2 0.0 -11.7704694857 -3.2371182557 -1.0295573593
393 1 0.0 -16.0000335563 -7.4666823263 1.0666689037
394 1 0.0 -16.0000335563 -5.3333445188 3.2000067112
395 1 0.0 -9.6000201338 -5.3333445188 5.3333445187
396 1 0.0 -9.6000201338 -7.4666823263 7.4666823262
397 1 0.0 -16.0000335563 -1.0666689038 7.4666823262
398 1 0.0 -16.0000335563 -3.2000067113 5.3333445187
399 1 0.0 -9.6000201338 -3.2000067113 3.2000067112
400 1 0.0 -9.6000201338 -1.0666689038 1.0666689037
401 1 0.0 -13.8666957488 -7.4666823263 3.2000067112
402 1 0.0 -11.7333579413 -1.0666689038 3.2000067112
403 1 0.0 -11.7333579413 -7.4666823263 5.3333445187
404 1 0.0 -13.8666957488 -1.0666689038 5.3333445187
405 1 0.0 -13.8666957488 -3.2000067113 7.4666823262
406 1 0.0 -13.8666957488 -5.3333445188 1.0666689037
407 1 0.0 -11.7333579413 -5.3333445188 7.4666823262
408 1 0.0 -11.7333579413 -3.2000067113 1.0666689037
409 1 0.0 -17.06670246 -8.53335123 4.266675615
410 1 0.0 -14.9333646525 -6.4000134225 6.4000134225
411 1 0.0 -17.06670246 -4.266675615 0.0
412 1 0.0 -10.6666890375 -6.4000134225 2.1333378075
413 1 0.0 -14.9333646525 -2.1333378075 2.1333378075
414 1 0.0 -10.6666890375 -2.1333378075 6.4000134225
415 1 0.0 -12.800026845 -8.53335123 0.0
416 1 0.0 -12.800026845 -4.266675615 4.266675615
417 2 0.0 -16.0371451007 -7.5037938707 7.5037938707
418 2 0.0 -15.9629220118 -5.3704560632 1.1037804482
419 2 0.0 -9.5629085893 -5.2962329743 3.2371182557
420 2 0.0 -9.6371316782 -7.4295707818 5.3704560632
421 2 0.0 -16.0371451007 -1.0295573593 1.0295573593
422 2 0.0 -15.9629220118 -3.1628951668 7.4295707818
423 2 0.0 -9.5629085893 -3.2371182557 5.2962329743
424 2 0.0 -9.6371316782 -1.1037804482 3.1628951668
425 2 0.0 -9.5629085893 -7.5037938707 1.0295573593
426 2 0.0 -15.9629220118 -7.4295707818 3.1628951668
427 2 0.0 -13.8295842043 -1.0295573593 3.2371182557
428 2 0.0 -11.6962463968 -1.1037804482 1.1037804482
429 2 0.0 -11.7704694857 -1.0295573593 5.2962329743
430 2 0.0 -13.9038072932 -1.1037804482 7.4295707818
431 2 0.0 -16.0371451007 -5.2962329743 5.2962329743
432 2 0.0 -13.9038072932 -3.1628951668 5.3704560632
433 2 0.0 -13.8295842043 -3.2371182557 1.0295573593
434 2 0.0 -13.8295842043 -7.5037938707 5.2962329743
435 2 0.0 -16.0371451007 -3.2371182557 3.2371182557
436 2 0.0 -13.8295842043 -5.2962329743 7.5037938707
437 2 0.0 -13.9038072932 -7.4295707818 1.1037804482
438 2 0.0 -9.6371316782 -5.3704560632 7.4295707818
439 2 0.0 -11.7704694857 -5.2962329743 1.0295573593
440 2 0.0 -11.6962463968 -5.3704560632 5.3704560632
441 2 0.0 -15.9629220118 -1.1037804482 5.3704560632
442 2 0.0 -9.6371316782 -3.1628951668 1.1037804482
443 2 0.0 -9.5629085893 -1.0295573593 7.5037938707
444 2 0.0 -13.9038072932 -5.3704560632 3.1628951668
445 2 0.0 -11.7704694857 -7.5037938707 3.2371182557
446 2 0.0 -11.6962463968 -3.1628951668 3.1628951668
447 2 0.0 -11.6962463968 -7.4295707818 7.4295707818
448 2 0.0 -11.7704694857 -3.2371182557 7.5037938707
449 1 0.0 -16.0000335563 -7.4666823263 9.6000201337
450 1 0.0 -16.0000335563 -5.3333445188 11.7333579412
451 1 0.0 -9.6000201338 -5.3333445188 13.8666957487
452 1 0.0 -9.6000201338 -7.4666823263 16.0000335562
453 1 0.0 -16.0000335563 -1.0666689038 16.0000335562
454 1 0.0 -16.0000335563 -3.2000067113 13.8666957487
455 1 0.0 -9.6000201338 -3.2000067113 11.7333579412
456 1 0.0 -9.6000201338 -1.0666689038 9.6000201337
457 1 0.0 -13.8666957488 -7.4666823263 11.7333579412
458 1 0.0 -11.7333579413 -1.0666689038 11.7333579412
459 1 0.0 -11.7333579413 -7.4666823263 13.8666957487
460 1 0.0 -13.8666957488 -1.0666689038 13.8666957487
461 1 0.0 -13.8666957488 -3.2000067113 16.0000335562
462 1 0.0 -13.8666957488 -5.3333445188 9.6000201337
463 1 0.0 -11.7333579413 -5.3333445188 16.0000335562
464 1 0.0 -11.7333579413 -3.2000067113 9.6000201337
465 1 0.0 -17.06670246 -8.53335123 12.800026845
466 1 0.0 -14.9333646525 -6.4000134225 14.9333646525
467 1 0.0 -17.06670246 -4.266675615 8.53335123
468 1 0.0 -10.6666890375 -6.4000134225 10.6666890375
469 1 0.0 -14.9333646525 -2.1333378075 10.6666890375
470 1 0.0 -10.6666890375 -2.1333378075 14.9333646525
471 1 0.0 -12.800026845 -8.53335123 8.53335123
472 1 0.0 -12.800026845 -4.266675615 12.800026845
473 2 0.0 -16.0371451007 -7.5037938707 16.0371451007
474 2 0.0 -15.9629220118 -5.3704560632 9.6371316782
475 2 0.0 -9.5629085893 -5.2962329743 11.7704694857
476 2 0.0 -9.6371316782 -7.4295707818 13.9038072932
477 2 0.0 -16.0371451007 -1.0295573593 9.5629085893
478 2 0.0 -15.9629220118 -3.1628951668 15.9629220118
479 2 0.0 -9.5629085893 -3.2371182557 13.8295842043
480 2 0.0 -9.6371316782 -1.1037804482 11.6962463968
481 2 0.0 -9.5629085893 -7.5037938707 9.5629085893
482 2 0.0 -15.9629220118 -7.4295707818 11.6962463968
483 2 0.0 -13.8295842043 -1.0295573593 11.7704694857
484 2 0.0 -11.6962463968 -1.1037804482 9.6371316782
485 2 0.0 -11.7704694857 -1.0295573593 13.8295842043
486 2 0.0 -13.9038072932 -1.1037804482 15.9629220118
487 2 0.0 -16.0371451007 -5.2962329743 13.8295842043
488 2 0.0 -13.9038072932 -3.1628951668 13.9038072932
489 2 0.0 -13.8295842043 -3.2371182557 9.5629085893
490 2 0.0 -13.8295842043 -7.5037938707 13.8295842043
491 2 0.0 -16.0371451007 -3.2371182557 11.7704694857
492 2 0.0 -13.8295842043 -5.2962329743 16.0371451007
493 2 0.0 -13.9038072932 -7.4295707818 9.6371316782
494 2 0.0 -9.6371316782 -5.3704560632 15.9629220118
495 2 0.0 -11.7704694857 -5.2962329743 9.5629085893
496 2 0.0 -11.6962463968 -5.3704560632 13.9038072932
497 2 0.0 -15.9629220118 -1.1037804482 13.9038072932
498 2 0.0 -9.6371316782 -3.1628951668 9.6371316782
499 2 0.0 -9.5629085893 -1.0295573593 16.0371451007
500 2 0.0 -13.9038072932 -5.3704560632 11.6962463968
501 2 0.0 -11.7704694857 -7.5037938707 11.7704694857
502 2 0.0 -11.6962463968 -3.1628951668 11.6962463968
503 2 0.0 -11.6962463968 -7.4295707818 15.9629220118
504 2 0.0 -11.7704694857 -3.2371182557 16.0371451007
505 1 0.0 -16.0000335563 -7.4666823263 18.1333713637
506 1 0.0 -16.0000335563 -5.3333445188 20.2667091712
507 1 0.0 -9.6000201338 -5.3333445188 22.4000469787
508 1 0.0 -9.6000201338 -7.4666823263 24.5333847862
509 1 0.0 -16.0000335563 -1.0666689038 24.5333847862
510 1 0.0 -16.0000335563 -3.2000067113 22.4000469787
511 1 0.0 -9.6000201338 -3.2000067113 20.2667091712
512 1 0.0 -9.6000201338 -1.0666689038 18.1333713637
513 1 0.0 -13.8666957488 -7.4666823263 20.2667091712
514 1 0.0 -11.7333579413 -1.0666689038 20.2667091712
515 1 0.0 -11.7333579413 -7.4666823263 22.4000469787
516 1 0.0 -13.8666957488 -1.0666689038 22.4000469787
517 1 0.0 -13.8666957488 -3.2000067113 24.5333847862
518 1 0.0 -13.8666957488 -5.3333445188 18.1333713637
519 1 0.0 -11.7333579413 -5.3333445188 24.5333847862
520 1 0.0 -11.7333579413 -3.2000067113 18.1333713637
521 1 0.0 -17.06670246 -8.53335123 21.333378075
522 1 0.0 -14.9333646525 -6.4000134225 23.4667158825
523 1 0.0 -17.06670246 -4.266675615 17.06670246
524 1 0.0 -10.6666890375 -6.4000134225 19.2000402675
525 1 0.0 -14.9333646525 -2.1333378075 19.2000402675
526 1 0.0 -10.6666890375 -2.1333378075 23.4667158825
527 1 0.0 -12.800026845 -8.53335123 17.06670246
528 1 0.0 -12.800026845 -4.266675615 21.333378075
529 2 0.0 -16.0371451007 -7.5037938707 24.5704963307
530 2 0.0 -15.9629220118 -5.3704560632 18.1704829082
531 2 0.0 -9.5629085893 -5.2962329743 20.3038207157
532 2 0.0 -9.6371316782 -7.4295707818 22.4371585232
533 2 0.0 -16.0371451007 -1.0295573593 18.0962598193
534 2 0.0 -15.9629220118 -3.1628951668 24.4962732418
535 2 0.0 -9.5629085893 -3.2371182557 22.3629354343
536 2 0.0 -9.6371316782 -1.1037804482 20.2295976268
537 2 0.0 -9.5629085893 -7.5037938707 18.0962598193
538 2 0.0 -15.9629220118 -7.4295707818 20.2295976268
539 2 0.0 -13.8295842043 -1.0295573593 20.3038207157
540 2 0.0 -11.6962463968 -1.1037804482 18.1704829082
541 2 0.0 -11.7704694857 -1.0295573593 22.3629354343
542 2 0.0 -13.9038072932 -1.1037804482 24.4962732418
543 2 0.0 -16.0371451007 -5.2962329743 22.3629354343
544 2 0.0 -13.9038072932 -3.1628951668 22.4371585232
545 2 0.0 -13.8295842043 -3.2371182557 18.0962598193
546 2 0.0 -13.8295842043 -7.5037938707 22.3629354343
547 2 0.0 -16.0371451007 -3.2371182557 20.3038207157
548 2 0.0 -13.8295842043 -5.2962329743 24.5704963307
549 2 0.0 -13.9038072932 -7.4295707818 18.1704829082
550 2 0.0 -9.6371316782 -5.3704560632 24.4962732418
551 2 0.0 -11.7704694857 -5.2962329743 18.0962598193
552 2 0.0 -11.6962463968 -5.3704560632 22.4371585232
553 2 0.0 -15.9629220118 -1.1037804482 22.4371585232
554 2 0.0 -9.6371316782 -3.1628951668 18.1704829082
555 2 0.0 -9.5629085893 -1.0295573593 24.5704963307
556 2 0.0 -13.9038072932 -5.3704560632 20.2295976268
557 2 0.0 -11.7704694857 -7.5037938707 20.3038207157
558 2 0.0 -11.6962463968 -3.1628951668 20.2295976268
559 2 0.0 -11.6962463968 -7.4295707818 24.4962732418
560 2 0.0 -11.7704694857 -3.2371182557 24.5704963307
561 1 0.0 -16.0000335563 1.0666689037 -16.0000335563
562 1 0.0 -16.0000335563 3.2000067112 -13.8666957488
563 1 0.0 -9.6000201338 3.2000067112 -11.7333579413
564 1 0.0 -9.6000201338 1.0666689037 -9.6000201338
565 1 0.0 -16.0000335563 7.4666823262 -9.6000201338
566 1 0.0 -16.0000335563 5.3333445187 -11.7333579413